; Auto-generated topology
#include "/home/hacortes/Li-EMDLab/LEMDLab/forcefield/forcefield.itp"

#include "/home/hacortes/Li-EMDLab/LEMDLab/itp/Li.itp"
#include "/home/hacortes/Li-EMDLab/LEMDLab/itp/PF6.itp"
#include "/home/hacortes/Li-EMDLab/LEMDLab/itp/EC_TraPPE.itp"
#include "/home/hacortes/Li-EMDLab/LEMDLab/itp/DMC_TraPPE.itp"

[ system ]
Electrolyte system

[ molecules ]
Li 39
PF6 39
EC 260
DMC 204