[  moleculetype  ]
;    name    nrexcl
BF4    3

[ atoms ]
;  nr        type    res     resname    atom  cgnr      charge
    1        B_001     1         _BF       B1     1     0.8276
    2        F_002     1         _BF       F2     2    -0.4569
    3        F_002     1         _BF       F2     3    -0.4569
    4        F_002     1         _BF       F2     4    -0.4569
    5        F_002     1         _BF       F2     5    -0.4569

[ bonds ]
;   i     j  type
1    2    1    ;   B-F
1    3    1    ;   B-F
1    4    1    ;   B-F
1    5    1    ;   B-F

[ angles ]
;   i     j     k  type
3    1    2    1    ;    F-B-F
4    1    2    1    ;    F-B-F
4    1    3    1    ;    F-B-F
5    1    2    1    ;    F-B-F
5    1    3    1    ;    F-B-F
5    1    4    1    ;    F-B-F

