[ moleculetype ]
; Name               nrexcl
  FSI                  3

[ atoms ]
;  nr        type    res     resname    atom  cgnr      charge
    1        F_003     1         FSI       F3     1    -0.13
    2        S_002     1         FSI       S2     2     1.02  
    3        O_003     1         FSI       O3     3    -0.53
    4        O_003     1         FSI       O3     4    -0.53
    5        N_002     1         FSI       N2     5    -0.66
    6        S_002     1         FSI       S2     6     1.02
    7        O_003     1         FSI       O3     7    -0.53
    8        O_003     1         FSI       O3     8    -0.53
    9        F_003     1         FSI       F3     9    -0.13
;    
; O3    F3    F3    O3
;   \  /        \  /
;    C1    N1    C1
;   /  \  /  \  /  \
; F3   S2     S2    F3
;
;

[ bonds ]
;  ai    aj   funct                           
2    5    1   ;    S-N
3    2    1   ;    S-O
4    2    1   ;    S-O
6    5    1   ;    S-N
7    6    1   ;    S-O  
8    6    1   ;    S-O
9    6    1   ;    S-F 
1    2    1   ;    S-F
  
[angles]
;  ai    aj   ak  funct                             
3    2    5    1      ;    O-S-N 
4    2    5    1      ;    O-S-N 
6    5    2    1      ;    S-O-S
7    6    5    1      ;    O-S-N
8    6    5    1      ;    O-S-N
9    6    5    1      ;    F-S-N
1    2    5    1      ;    F-S-O 
4    2    3    1      ;    O-S-O
1    2    3    1      ;    F-S-O
1    2    4    1      ;    F-S-O 
8    6    7    1      ;    O-S-O 
9    6    7    1      ;    F-S-O
9    6    8    1      ;    F-S-O
                                
[ dihedrals ]
;  ai    aj   ak   al funct                                                      
6    5    2     3     3    ;    S-N-S-O      
7    6    5     2     3    ;    O-S-N-S
8    6    5     2     3    ;    O-S-N-S
9    6    5     2     3    ;    F-S-N-S 
1    2    5     6     3    ;    F-S-N-S
6    5    2     4     3    ;    S-N-S-O