[ atomtypes ]

;name    at.num  mass       charge      ptype   sigma (nm)  epsilon (kJ/mol)

;C
 C_0332a    6    12.0110    0.000       A       0.3820      0.33258
 C_0332c    6    12.0110    0.000       A       0.3820      0.33258

;CH
 C_1341a    6    13.0190    0.000       A       0.4330      0.08314
 C_1341d    6    13.0190    0.000       A       0.4330      0.08314
 C_1341e    6    13.0190    0.000       A       0.4330      0.08314

;CH2
 C_2241a    6    14.0270    0.000       A       0.3950      0.38247
 C_2241c    6    14.0270    0.000       A       0.3950      0.38247
 C_2241e    6    14.0270    0.000       A       0.3950      0.38247
 C_2241d    6    14.0270    0.000       A       0.3880      0.46810

;CH3
 C_3141a    6    15.0350    0.000       A       0.3750      0.81482
 C_3141e    6    15.0350    0.000       A       0.3750      0.81482


;O
 O_0132a    8    15.9994    0.000       A       0.3050      0.65684
 O_0241a    8    15.9994    0.000       A       0.2800      0.45730
 O_0241c    8    15.9994    0.000       A       0.2800      0.45730
 O_0241d    8    15.9994    0.000       A       0.2200      1.57975


; LI+ (opls_406)
 LIP        3     6.9410    1.00        A       0.2126      0.07648 

; hexafluorophosphate JCSPerkin2 (1999) 2365
 P_0661a   15    30.9738    1.34        A       0.3740      0.83680
 F_0111a    9    18.9984   -0.39        A       0.3118      0.25522

;J. Chem. Theory Comput., 2017, 13, 6131-6145.
 B_001      5    10.8110    0.8276      A       0.35814    0.39748
 F_002      9    18.9984   -0.4569      A       0.31181    0.25104

 ;J. Chem. Theory Comput., 2017, 13, 6131-6145.
 Cl_01     17    35.4500    1.1760      A       0.35000    0.49283
 O_002      8    15.9900   -0.5444      A       0.29000    0.87864

;J. Chem. Theory Comput., 2017, 13, 6131-6145.
 N_001      7    14.0000   -0.66        A       0.3250      0.71128
 S_001     16    32.0660    1.02        A       0.3550      1.04600
 O_001      8    15.9990   -0.53        A       0.2960      0.87864
 C_001      6    12.0110    0.35        A       0.3500      0.27614
 F_001      9    18.9984   -0.16        A       0.2950      0.22175

;J. Chem. Theory Comput. 2017, 13, 12, 6131–6145
N_002      7    14.0000   -0.66        A       0.3250      0.71100
S_002     16    32.0660    1.02        A       0.3550      1.04600
F_003      9    18.9984   -0.13        A       0.2950      0.22200
O_003      8    15.9990   -0.53        A       0.2960      0.87900

