Generated with LigParGen (israel.cabezadevaca@yale.edu)
    9
    1TFS    F08    1   0.317   0.144  -0.087
    1TFS    S01    2   0.265   0.014  -0.011
    1TFS    O02    3   0.124   0.030   0.010
    1TFS    O03    4   0.324  -0.101  -0.075
    1TFS    N00    5   0.332   0.017   0.146
    1TFS    S04    6   0.487   0.085   0.151
    1TFS    O05    7   0.466   0.228   0.154
    1TFS    O06    8   0.555   0.014   0.256
    1TFS    F07    9   0.561   0.049   0.014
  10.00000  10.00000  10.00000
