;---------------------------------------------
;        Generated with LigParGen 
;        William L. Jorgensen Lab
;     Author: israel.cabezadevaca@yale.edu
;    OPLS Force Field with CM1A derived Atomic Charges
;---------------------------------------------
[ defaults ]
; nbfunc        comb-rule       gen-pairs       fudgeLJ fudgeQQ
    1               3              yes            0.5     0.5

[ atomtypes ]
  opls_800    NC    14.0070     0.000    A    3.25000E-01   7.11280E-01
  opls_801    SY    32.0670     0.000    A    3.55000E-01   1.04600E+00
  opls_802    OY    15.9990     0.000    A    2.96000E-01   7.11280E-01
  opls_803    OY    15.9990     0.000    A    2.96000E-01   7.11280E-01
  opls_804    SY    32.0670     0.000    A    3.55000E-01   1.04600E+00
  opls_805    OY    15.9990     0.000    A    2.96000E-01   7.11280E-01
  opls_806    OY    15.9990     0.000    A    2.96000E-01   7.11280E-01
  opls_807     F    18.9980     0.000    A    2.90000E-01   2.51040E-01
  opls_808     F    18.9980     0.000    A    2.90000E-01   2.51040E-01

[ moleculetype ]
; Name               nrexcl
  TFS                  3

[ atoms ]
;   nr       type  resnr residue  atom   cgnr     charge       mass
     1   opls_808      1    TFS   F08      1    -0.2232    18.9980 
     2   opls_801      1    TFS   S01      1     1.7005    32.0670 
     3   opls_802      1    TFS   O02      1    -0.5200    15.9990 
     4   opls_803      1    TFS   O03      1    -0.5200    15.9990 
     5   opls_800      1    TFS   N00      1    -1.8763    14.0070 
     6   opls_804      1    TFS   S04      1     1.6999    32.0670 
     7   opls_805      1    TFS   O05      1    -0.5207    15.9990 
     8   opls_806      1    TFS   O06      1    -0.5207    15.9990 
     9   opls_807      1    TFS   F07      1    -0.2195    18.9980 

[ bonds ]
;  ai    aj   funct      c0       c1
    2    5    1      0.1730    209200.000
    3    2    1      0.1440    585760.000
    4    2    1      0.1440    585760.000
    6    5    1      0.1730    209200.000
    7    6    1      0.1440    585760.000
    8    6    1      0.1440    585760.000
    9    6    1      0.1600    376560.000
    1    2    1      0.1600    376560.000

[angles]
;  ai    aj   ak  funct      c0       c1 
    3    2    5    1       103.980    639.734
    4    2    5    1       103.980    639.734
    6    5    2    1       117.310    671.867
    7    6    5    1       103.980    639.734
    8    6    5    1       103.980    639.734
    9    6    5    1       103.980    639.734
    1    2    5    1       103.980    639.734
    4    2    3    1       123.000    870.272
    1    2    3    1       106.200    518.816
    1    2    4    1       106.200    518.816
    8    6    7    1       123.000    870.272
    9    6    7    1       106.200    518.816
    9    6    8    1       106.200    518.816
[ dihedrals ]
;  PROPER DIHEDRAL ANGLES
;  ai    aj   ak   al funct      c0       c1      c2      c3       c4     c5
    6    5    2    3    3       0.000   0.000    0.000  -0.000  -0.000   0.000
    7    6    5    2    3       0.000   0.000    0.000  -0.000  -0.000   0.000
    8    6    5    2    3       0.000   0.000    0.000  -0.000  -0.000   0.000
    9    6    5    2    3       0.000   0.000    0.000  -0.000  -0.000   0.000
    1    2    5    6    3       0.000   0.000    0.000  -0.000  -0.000   0.000
    6    5    2    4    3       0.000   0.000    0.000  -0.000  -0.000   0.000
[ dihedrals ]
;IMPROPER DIHEDRAL ANGLES
;  ai    aj   ak   al funct      c0       c1      c2      c3       c4     c5
[ pairs ]
;  ai    aj funct
    2    7    1
    2    8    1
    2    9    1
    3    6    1
    4    6    1
    6    1    1
