[ moleculetype ]
; Name               nrexcl
  TFS                  3

[ atoms ]
;  nr        type    res     resname    atom  cgnr      charge
    1        O_802     1         TFS       O1     1     -0.4307     
    2        S_801     1         TFS       S1     2     1.6233     
    3        O_802     1         TFS       O2     3    -0.4307     
    4        C_803     1         TFS       C1     4     0.0431     
    5        F_804     1         TFS       F1     5    -0.1430     
    6        F_804     1         TFS       F2     6    -0.1430    
    7        F_804     1         TFS       F3     7    -0.1430    
    8        N_800     1         TFS       N1     8    -1.7652     
    9        S_801     1         TFS       S2     9     1.5978     
   10        O_802     1         TFS       O3    10    -0.4480     
   11        O_802     1         TFS       O4    11    -0.4480     
   12        C_803     1         TFS       C2    12     0.0989     
   13        F_804     1         TFS       F4    13    -0.1372     
   14        F_804     1         TFS       F5    14    -0.1372     
   15        F_804     1         TFS       F6    15    -0.1371     

;  F1  F3      F4   F6
;   \  /        \  /
;    C1    N1    C2
;   /  \  /  \  /  \
; F2   S1     S2    F5
;     /  \   /  \
;    O1  O2 O3  O4

[ bonds ]
;  ai    aj   funct                           
    2    8    1                              
    3    2    1                            
    4    2    1                          
    5    4    1                          
    6    4    1                          
    7    4    1                            
    9    8    1                            
   10    9    1                           
   11    9    1                             
   12    9    1                                
   13   12    1                             
   14   12    1                             
   15   12    1                             
    1    2    1                            

[ pairs ]
;  ai    aj funct
    8    5    1
    8    6    1
    8    7    1
    8   13    1
    8   14    1
    8   15    1
    2   10    1
    2   11    1
    2   12    1
    3    5    1
    3    6    1
    3    7    1
    3    9    1
    4    9    1
    5    1    1
    6    1    1
    7    1    1
    9    1    1
   10   13    1
   10   14    1
   10   15    1
   11   13    1
   11   14    1
   11   15    1
   
[angles]
;  ai    aj   ak  funct                             
    3    2    8    1                              
    4    2    8    1                           
    5    4    2    1                                
    6    4    2    1                               
    7    4    2    1                            
    9    8    2    1                            
   10    9    8    1                             
   11    9    8    1                               
   12    9    8    1                             
   13   12    9    1                               
   14   12    9    1                             
   15   12    9    1                                 
    1    2    8    1                             
    4    2    3    1                            
    1    2    3    1                            
    1    2    4    1                               
    6    4    5    1                             
    7    4    5    1                              
    7    4    6    1                             
   11    9   10    1                              
   12    9   10    1                              
   12    9   11    1                                
   14   12   13    1                             
   15   12   13    1                              
   15   12   14    1
                                
[ dihedrals ]
;  ai    aj   ak   al funct                                                      
    5    4    2    8    3                                                      
    6    4    2    8    3       
    7    4    2    8    3       
    9    8    2    3    3       
   10    9    8    2    3       
   11    9    8    2    3       
   12    9    8    2    3     
   13   12    9    8    3       
   14   12    9    8    3       
   15   12    9    8    3       
    1    2    8    9    3       
    5    4    2    3    3       
    6    4    2    3    3       
    7    4    2    3    3       
    9    8    2    4    3    
    1    2    4    5    3       
    1    2    4    6    3       
    1    2    4    7    3       
   13   12    9   10    3       
   14   12    9   10    3       
   15   12    9   10    3       
   13   12    9   11    3       
   14   12    9   11    3       
   15   12    9   11    3       


