Electrolyte system
 3102
    1_EC     O1    1   2.177   0.219   2.735  0.1891  0.0566 -0.0677
    1_EC     C2    2   2.158   0.129   2.812  0.3914 -0.1673 -0.2790
    1_EC     O3    3   2.034   0.076   2.831  0.1907  0.6316  0.6688
    1_EC     O4    4   2.242   0.022   2.808  0.2000 -0.3374  0.2572
    1_EC     C5    5   2.054  -0.022   2.933  0.3339 -0.1816 -0.1274
    1_EC     C6    6   2.200  -0.061   2.917  0.5132  0.1177  0.7275
    1_EC     O1    7   2.636   2.348   1.868  0.0867  0.4913  0.2642
    1_EC     C2    8   2.549   2.378   1.791  0.1609  0.0190 -0.0015
    1_EC     O3    9   2.441   2.448   1.834 -0.2013 -0.2350 -0.4774
    1_EC     O4   10   2.495   2.289   1.703  0.1653 -0.0326  0.0478
    1_EC     C5   11   2.364   2.472   1.716 -0.5110  0.2676 -0.1750
    1_EC     C6   12   2.419   2.373   1.616  0.0616  0.1159  0.2799
    1_EC     O1   13   3.427   0.843   2.915 -0.1253 -0.0237 -0.4146
    1_EC     C2   14   3.452   0.739   2.861 -0.1209 -0.3034  0.1118
    1_EC     O3   15   3.564   0.668   2.888 -0.1495 -0.3041  0.2269
    1_EC     O4   16   3.352   0.646   2.861 -0.0901 -0.3478 -0.6354
    1_EC     C5   17   3.555   0.550   2.808  0.0642 -0.2329  0.0986
    1_EC     C6   18   3.405   0.535   2.789  0.1716  0.0225 -1.0162
    1_EC     O1   19   3.352   2.908   2.306  0.1490  0.0705 -0.1056
    1_EC     C2   20   3.413   2.805   2.315 -0.2181 -0.1314  0.0751
    1_EC     O3   21   3.353   2.692   2.362 -0.0901  0.0247  0.6180
    1_EC     O4   22   3.534   2.801   2.377 -0.4242 -0.2521  0.4685
    1_EC     C5   23   3.458   2.595   2.353 -0.0713  0.1087 -0.1462
    1_EC     C6   24   3.590   2.670   2.364 -0.0203 -0.1211  0.8732
    1_EC     O1   25   3.010   2.626   0.997  0.5553  0.5925  0.4446
    1_EC     C2   26   3.019   2.705   0.908  0.0593 -0.0983 -0.2322
    1_EC     O3   27   2.921   2.775   0.844  0.0692 -0.1963 -0.3556
    1_EC     O4   28   3.134   2.769   0.873 -0.1833  0.5996  0.2361
    1_EC     C5   29   2.972   2.792   0.712  0.0814 -0.4047 -0.3784
    1_EC     C6   30   3.123   2.789   0.732  0.0236 -0.2700  0.0917
    1_EC     O1   31   1.533   0.908   0.561 -0.0262 -0.2427  0.0111
    1_EC     C2   32   1.428   0.849   0.562 -0.2199  0.0678 -0.6601
    1_EC     O3   33   1.429   0.716   0.532 -0.0601 -0.2501  0.6833
    1_EC     O4   34   1.322   0.898   0.493 -0.2819  0.5532 -0.2304
    1_EC     C5   35   1.292   0.680   0.555 -0.2496 -0.1661 -0.2871
    1_EC     C6   36   1.219   0.812   0.544  0.1040  0.0285 -0.3200
    1_EC     O1   37   2.945   1.291   0.914  0.3496  0.2919 -0.2418
    1_EC     C2   38   3.012   1.192   0.918 -0.1759 -0.0490  0.2232
    1_EC     O3   39   2.969   1.064   0.902 -0.3183  0.0933 -0.5606
    1_EC     O4   40   3.133   1.179   0.980 -0.0786 -0.0527  0.0319
    1_EC     C5   41   3.082   0.976   0.892  0.0915  0.5422  0.0781
    1_EC     C6   42   3.199   1.058   0.943  0.2842 -0.0052  0.5245
    1_EC     O1   43   3.623   2.912   2.996  0.3511  0.7338 -0.1724
    1_EC     C2   44   3.566   2.921   2.891  0.1305 -0.0009 -0.1238
    1_EC     O3   45   3.549   2.816   2.807 -0.4183 -0.1333  0.1467
    1_EC     O4   46   3.468   3.013   2.867 -0.1218 -0.3929 -0.5883
    1_EC     C5   47   3.455   2.850   2.704  0.6511  0.1622 -0.7454
    1_EC     C6   48   3.370   2.940   2.792  0.0282 -0.0179 -1.1578
    1_EC     O1   49   3.893   0.755   3.861  0.0135  0.1414  0.8757
    1_EC     C2   50   3.795   0.698   3.820  0.3793  0.3205 -0.2824
    1_EC     O3   51   3.771   0.564   3.823  0.1288  0.3642 -0.3009
    1_EC     O4   52   3.741   0.742   3.704 -0.6166  0.4685  0.2317
    1_EC     C5   53   3.629   0.570   3.808  0.1043  0.2105 -0.1385
    1_EC     C6   54   3.608   0.691   3.718 -0.5107  0.0718 -0.1811
    1_EC     O1   55   3.784   1.479   1.121  0.1441  0.3568 -0.0392
    1_EC     C2   56   3.702   1.460   1.036 -0.0316 -0.0831  0.2226
    1_EC     O3   57   3.717   1.498   0.907  0.1890 -0.0450  0.2588
    1_EC     O4   58   3.635   1.342   1.030 -0.1007 -0.0336  0.0285
    1_EC     C5   59   3.585   1.479   0.855  0.4993 -0.3408 -0.4378
    1_EC     C6   60   3.538   1.353   0.925 -0.2756  0.3037  0.2239
    1_EC     O1   61   0.440   0.493   3.519  0.5980  0.1896  0.0052
    1_EC     C2   62   0.404   0.607   3.508 -0.2515 -0.0418  0.2974
    1_EC     O3   63   0.486   0.711   3.475 -0.3749 -0.1407 -0.3321
    1_EC     O4   64   0.284   0.649   3.460  0.0692 -0.1457 -0.6190
    1_EC     C5   65   0.422   0.831   3.518  0.4144  0.0539  0.3382
    1_EC     C6   66   0.278   0.785   3.503  0.5625 -0.4034  0.3113
    1_EC     O1   67   2.219   2.724   3.256  0.3717 -0.1787  0.3655
    1_EC     C2   68   2.183   2.656   3.349 -0.4343 -0.2727 -0.0046
    1_EC     O3   69   2.105   2.702   3.450 -0.2838  0.2909 -0.1415
    1_EC     O4   70   2.191   2.521   3.348 -0.0176 -0.2465 -0.5013
    1_EC     C5   71   2.124   2.607   3.555 -0.2754 -0.0560 -0.4576
    1_EC     C6   72   2.196   2.491   3.488 -0.6010 -0.2473 -0.4791
    1_EC     O1   73   2.231   2.542   3.929 -0.2362 -0.1191 -0.2912
    1_EC     C2   74   2.337   2.591   3.902 -0.5533  0.7030 -0.0919
    1_EC     O3   75   2.393   2.696   3.968  0.0720  0.3262 -0.0134
    1_EC     O4   76   2.378   2.612   3.774  0.0195  0.1545 -0.0050
    1_EC     C5   77   2.528   2.707   3.924  0.0819 -0.0447 -0.0797
    1_EC     C6   78   2.516   2.648   3.784 -0.0820  0.6671 -0.3709
    1_EC     O1   79   2.614   3.863   2.347 -0.0883  0.2472  0.2968
    1_EC     C2   80   2.532   3.941   2.388 -0.2736 -0.2002  0.7837
    1_EC     O3   81   2.541   4.005   2.508 -0.3640 -0.2324  0.8081
    1_EC     O4   82   2.401   3.914   2.365 -0.2695  0.0543  0.4533
    1_EC     C5   83   2.426   4.089   2.516 -0.4326 -0.2653  0.2391
    1_EC     C6   84   2.326   4.021   2.424 -0.2729  0.6582 -0.6262
    1_EC     O1   85   2.189   1.830   2.708  0.0953 -0.1471 -0.3108
    1_EC     C2   86   2.222   1.715   2.698 -0.0412 -0.1784 -0.3966
    1_EC     O3   87   2.143   1.608   2.726 -0.0886 -0.1389 -0.3817
    1_EC     O4   88   2.346   1.669   2.664  0.1823  0.0529  0.0933
    1_EC     C5   89   2.200   1.493   2.664  0.4359  0.0453 -0.2402
    1_EC     C6   90   2.348   1.526   2.679  0.3621  0.0872  0.3858
    1_EC     O1   91   1.101   3.472   1.640  0.1322  0.1087  0.4824
    1_EC     C2   92   1.133   3.357   1.647 -0.4551 -0.0875 -0.0273
    1_EC     O3   93   1.116   3.270   1.543 -0.0723  0.0736 -0.2278
    1_EC     O4   94   1.202   3.301   1.750 -0.2367 -0.0531 -0.1550
    1_EC     C5   95   1.146   3.141   1.597 -0.0819 -0.0856 -0.5990
    1_EC     C6   96   1.252   3.177   1.701 -0.1712  0.1392 -0.5840
    1_EC     O1   97   1.214   1.157   1.415 -0.2790 -0.1271  0.4206
    1_EC     C2   98   1.171   1.269   1.405  0.3646  0.0936  0.0611
    1_EC     O3   99   1.037   1.291   1.408  0.2859 -0.3373 -0.1966
    1_EC     O4  100   1.229   1.383   1.450 -0.0009  0.2171  0.2264
    1_EC     C5  101   1.017   1.421   1.351 -0.2013 -0.1917  0.2954
    1_EC     C6  102   1.146   1.487   1.397 -0.2394 -0.0131  0.1464
    1_EC     O1  103   0.682   2.728   0.159 -0.6173 -0.3099  0.2951
    1_EC     C2  104   0.588   2.798   0.129 -0.0155  0.3997  0.0420
    1_EC     O3  105   0.572   2.834  -0.001 -0.2696  0.2915  0.0423
    1_EC     O4  106   0.530   2.892   0.208 -0.1255 -0.0653  0.5197
    1_EC     C5  107   0.440   2.888  -0.011 -0.6335 -0.6513 -0.3501
    1_EC     C6  108   0.421   2.943   0.130  0.3242 -0.3762 -0.3213
    1_EC     O1  109   2.331   2.251   2.523 -0.1981 -0.2124  0.5212
    1_EC     C2  110   2.389   2.149   2.501  0.0312  0.0252 -0.0078
    1_EC     O3  111   2.408   2.057   2.600 -0.7396 -0.3555 -0.2084
    1_EC     O4  112   2.497   2.138   2.419  0.2021  0.0299  0.2150
    1_EC     C5  113   2.480   1.947   2.545  0.1991  0.1497 -0.0036
    1_EC     C6  114   2.522   1.997   2.408  0.3127  0.0667  0.0004
    1_EC     O1  115   0.538   3.260   0.223  0.3819  0.0452  0.0830
    1_EC     C2  116   0.562   3.233   0.338  0.1623 -0.1049  0.0954
    1_EC     O3  117   0.666   3.295   0.400  0.1308  0.0241  0.0220
    1_EC     O4  118   0.466   3.216   0.432 -0.1108  0.5256 -0.0652
    1_EC     C5  119   0.678   3.243   0.533  0.0091 -0.0358  0.0097
    1_EC     C6  120   0.534   3.199   0.556  0.0014 -0.1262 -0.2161
    1_EC     O1  121   3.161   2.728   3.621 -0.3992  0.1914  0.0759
    1_EC     C2  122   3.137   2.620   3.574 -0.6583  0.5697 -0.6715
    1_EC     O3  123   3.042   2.531   3.612  0.4015 -0.3197 -0.0657
    1_EC     O4  124   3.214   2.563   3.478 -0.7925 -0.1381 -0.3610
    1_EC     C5  125   3.020   2.446   3.499 -0.1659  0.0024 -0.2007
    1_EC     C6  126   3.162   2.434   3.446 -0.1786 -0.4479 -0.1329
    1_EC     O1  127   1.924   2.498   1.945 -0.0370 -0.3637  0.0195
    1_EC     C2  128   1.947   2.580   2.030  0.2952 -0.5113  0.0750
    1_EC     O3  129   2.066   2.638   2.060  0.1050 -0.0962  0.0366
    1_EC     O4  130   1.854   2.677   2.056  0.7400 -0.0691  0.0191
    1_EC     C5  131   2.046   2.731   2.167 -0.1855  0.5873 -0.6059
    1_EC     C6  132   1.895   2.740   2.177 -0.1697 -0.1620  0.3771
    1_EC     O1  133   2.840   3.725   1.783  0.2675  0.0004  0.1710
    1_EC     C2  134   2.870   3.634   1.855 -0.0366 -0.3645 -0.1659
    1_EC     O3  135   2.797   3.601   1.965 -0.1784  0.4462 -0.0124
    1_EC     O4  136   2.995   3.628   1.907 -0.3679  0.3861  0.7476
    1_EC     C5  137   2.855   3.479   2.010  0.3039  0.7646  0.2386
    1_EC     C6  138   3.000   3.502   1.973  0.3299 -0.1167 -0.2318
    1_EC     O1  139   0.878   0.104   2.029  0.1638 -0.0429 -0.0294
    1_EC     C2  140   0.885   0.038   2.129  0.0045 -0.4488 -0.2849
    1_EC     O3  141   0.987  -0.049   2.152  0.1502 -0.1892  0.0474
    1_EC     O4  142   0.868   0.095   2.251 -0.1221 -0.1871 -0.4236
    1_EC     C5  143   0.936  -0.115   2.269 -0.4771 -0.1509 -0.2035
    1_EC     C6  144   0.843  -0.016   2.338  0.2526  0.2368  0.2411
    1_EC     O1  145   0.380   2.381   3.496 -0.0585  0.1949  0.2904
    1_EC     C2  146   0.288   2.443   3.542 -0.1289  0.5907 -0.3663
    1_EC     O3  147   0.301   2.524   3.651  0.0413  0.1378 -0.0489
    1_EC     O4  148   0.161   2.438   3.495 -0.2973 -0.2161  0.1587
    1_EC     C5  149   0.168   2.539   3.701  0.0352  0.1558 -0.0703
    1_EC     C6  150   0.094   2.541   3.569  0.0227  0.1549 -0.0634
    1_EC     O1  151   2.380   3.114   0.213  0.0132  0.4374  0.6403
    1_EC     C2  152   2.381   3.004   0.262  0.2966  0.0768 -0.1671
    1_EC     O3  153   2.308   2.899   0.217  0.0792  0.2263 -0.1624
    1_EC     O4  154   2.492   2.962   0.329 -0.0453  0.0787  0.3999
    1_EC     C5  155   2.316   2.810   0.330 -0.7336 -0.0893 -0.3439
    1_EC     C6  156   2.437   2.856   0.409 -0.6545 -0.2136 -0.3926
    1_EC     O1  157   3.005   2.036   3.034  0.3312  0.0268  0.2292
    1_EC     C2  158   3.030   1.922   3.006 -0.6070 -0.1682  0.1544
    1_EC     O3  159   3.057   1.879   2.880  0.1051 -0.5091  0.4146
    1_EC     O4  160   3.103   1.840   3.088 -0.4563  0.0096  0.1985
    1_EC     C5  161   3.052   1.737   2.893  0.4770 -0.5225  0.4108
    1_EC     C6  162   3.074   1.708   3.041 -0.3606 -0.1595  0.6125
    1_EC     O1  163   1.109   3.307   3.281 -0.1614  0.1213  0.1436
    1_EC     C2  164   1.079   3.193   3.300  0.1176  0.0958  0.4355
    1_EC     O3  165   1.003   3.158   3.407 -0.6069  0.2802 -0.0117
    1_EC     O4  166   1.045   3.114   3.195 -0.1793  0.6365  0.1227
    1_EC     C5  167   0.991   3.016   3.393 -0.5032  0.2691  0.0118
    1_EC     C6  168   1.046   2.984   3.255  0.0364  0.6428  0.1333
    1_EC     O1  169   1.890   0.724   0.538  0.1035 -0.2489 -0.4282
    1_EC     C2  170   1.879   0.840   0.508 -0.4346 -0.1930 -0.0233
    1_EC     O3  171   1.936   0.889   0.395 -0.2561  0.0121  0.1546
    1_EC     O4  172   1.899   0.942   0.597 -0.0792  0.2699 -0.6284
    1_EC     C5  173   1.893   1.025   0.387  0.0553  0.1120  0.1518
    1_EC     C6  174   1.861   1.062   0.531 -0.4790  0.4591 -0.0554
    1_EC     O1  175   0.080   0.849   2.852  0.1355  0.5324  0.1819
    1_EC     C2  176   0.154   0.857   2.757 -0.0564 -0.2312 -0.0345
    1_EC     O3  177   0.272   0.924   2.763  0.1581 -0.5945 -0.1747
    1_EC     O4  178   0.113   0.880   2.630 -0.0517  0.1338  0.0279
    1_EC     C5  179   0.334   0.906   2.636  0.5672 -0.7172  0.0421
    1_EC     C6  180   0.225   0.848   2.548 -0.0212  0.5815 -0.1072
    1_EC     O1  181   3.256   0.764   1.411 -0.0200  0.3115 -0.1909
    1_EC     C2  182   3.319   0.698   1.489  0.1314  0.3223 -0.3035
    1_EC     O3  183   3.428   0.629   1.446  0.2623  0.5787 -0.3868
    1_EC     O4  184   3.347   0.739   1.615 -0.0187  0.4997 -0.3263
    1_EC     C5  185   3.454   0.546   1.560  0.2720  0.6824 -0.3138
    1_EC     C6  186   3.395   0.620   1.679 -0.5894  0.2088 -0.4356
    1_EC     O1  187   3.172   3.163   3.234 -0.4354  0.2002 -0.1737
    1_EC     C2  188   3.215   3.052   3.224 -0.3214  0.2666 -0.4604
    1_EC     O3  189   3.143   2.939   3.248  0.0038  0.1096 -0.2024
    1_EC     O4  190   3.348   3.026   3.235 -0.3931  0.2124  0.3944
    1_EC     C5  191   3.231   2.829   3.268 -0.3350 -0.1522 -0.1326
    1_EC     C6  192   3.369   2.884   3.234 -0.1214  0.2386  1.2678
    1_EC     O1  193   2.916   2.644   1.360 -0.0379 -0.7591 -0.4053
    1_EC     C2  194   3.023   2.696   1.346 -0.4566  0.3986  0.4795
    1_EC     O3  195   3.053   2.789   1.252  0.2574 -0.3400 -0.0427
    1_EC     O4  196   3.095   2.749   1.449  0.0012  0.4107  0.1575
    1_EC     C5  197   3.188   2.835   1.257  0.4422 -0.8503 -0.2719
    1_EC     C6  198   3.222   2.787   1.397  0.0435  0.4404  0.2826
    1_EC     O1  199   1.038   0.358   3.192  0.1381  0.3819 -0.6385
    1_EC     C2  200   1.088   0.429   3.275  0.1808 -0.6564  0.2436
    1_EC     O3  201   1.186   0.383   3.357  0.2621 -0.5999  0.1787
    1_EC     O4  202   1.128   0.557   3.253 -0.3371 -0.5065  0.1562
    1_EC     C5  203   1.209   0.485   3.455 -0.3423 -0.2050 -0.0807
    1_EC     C6  204   1.177   0.611   3.376  0.2913 -0.1437 -0.2456
    1_EC     O1  205   1.435   1.218   3.066  0.7476  0.6356 -0.1363
    1_EC     C2  206   1.376   1.306   3.009 -0.8871 -0.3004  0.0390
    1_EC     O3  207   1.449   1.377   2.919 -0.0193  0.0174  0.9602
    1_EC     O4  208   1.323   1.413   3.074 -0.1944 -0.2351  0.5116
    1_EC     C5  209   1.358   1.469   2.858  0.6791  0.0640 -0.0352
    1_EC     C6  210   1.266   1.499   2.975  0.6910 -0.1854  0.0385
    1_EC     O1  211   1.645   0.614   1.410 -0.5781  0.5154 -0.2969
    1_EC     C2  212   1.739   0.666   1.357 -0.0696 -0.5778 -0.4954
    1_EC     O3  213   1.714   0.778   1.285  0.3781 -0.0909  0.1003
    1_EC     O4  214   1.848   0.708   1.427 -0.4323  0.4276 -0.5270
    1_EC     C5  215   1.835   0.831   1.232  0.2492 -0.0545 -0.1602
    1_EC     C6  216   1.933   0.764   1.327  0.2940  0.1070 -0.0916
    1_EC     O1  217   2.981   0.000   0.541 -0.2004 -0.3060  0.1141
    1_EC     C2  218   2.968   0.030   0.656  0.2597 -0.0829  0.1108
    1_EC     O3  219   2.994   0.150   0.714 -0.1667 -0.0901  0.3249
    1_EC     O4  220   2.861  -0.017   0.726 -0.0285  0.4455  0.0291
    1_EC     C5  221   2.959   0.141   0.853  0.4926 -0.5020  0.4722
    1_EC     C6  222   2.832   0.058   0.843  0.0458  0.2106  0.1997
    1_EC     O1  223   2.412   1.300   2.907 -0.3743  0.1887  0.4943
    1_EC     C2  224   2.343   1.202   2.911  0.3634 -0.3420  0.4712
    1_EC     O3  225   2.305   1.131   2.801 -0.4481 -0.0131  0.5303
    1_EC     O4  226   2.238   1.188   2.997 -0.1317  0.2961 -0.0141
    1_EC     C5  227   2.226   1.020   2.843 -0.2974 -0.4098 -0.2322
    1_EC     C6  228   2.177   1.060   2.981 -0.0424  0.2928 -0.3406
    1_EC     O1  229   3.848   1.625   2.613 -0.8620  0.3346  0.0086
    1_EC     C2  230   3.842   1.579   2.724  0.2046 -0.1075 -0.1041
    1_EC     O3  231   3.726   1.530   2.774  0.5856 -0.5558  0.3469
    1_EC     O4  232   3.938   1.510   2.790  0.5183  0.4870  0.0727
    1_EC     C5  233   3.754   1.496   2.910  0.1593 -0.0628  0.5616
    1_EC     C6  234   3.905   1.500   2.928  0.2153  0.6479  0.0120
    1_EC     O1  235   0.888   2.088   2.396 -0.2509 -0.4508  0.0504
    1_EC     C2  236   0.891   2.077   2.277 -0.4697 -0.5012  0.0497
    1_EC     O3  237   0.813   2.147   2.190  0.5696  0.5158 -0.0874
    1_EC     O4  238   1.006   2.058   2.206 -0.5587 -0.2197 -0.1693
    1_EC     C5  239   0.822   2.084   2.062 -0.0540  0.2467 -0.0016
    1_EC     C6  240   0.959   2.020   2.076 -0.1379 -0.0225 -0.3813
    1_EC     O1  241   1.699   3.393   3.018 -0.3301 -0.2856 -0.3726
    1_EC     C2  242   1.747   3.447   2.922  0.4054  0.0027  0.1476
    1_EC     O3  243   1.875   3.423   2.882  0.2834 -0.3012 -0.0637
    1_EC     O4  244   1.713   3.572   2.882  0.2333 -0.2345 -0.4718
    1_EC     C5  245   1.885   3.494   2.758  0.2765 -0.0474  0.0817
    1_EC     C6  246   1.807   3.621   2.786  0.3811  0.0740 -0.1726
    1_EC     O1  247   0.766   1.034   1.970 -0.7323  0.1712  0.5255
    1_EC     C2  248   0.837   1.117   1.920 -0.4971 -0.1548  0.3116
    1_EC     O3  249   0.926   1.074   1.827 -0.0167  0.0502  0.6769
    1_EC     O4  250   0.913   1.199   1.997  0.3241 -0.8063  0.2023
    1_EC     C5  251   0.991   1.193   1.781 -0.6508  0.0777 -0.1621
    1_EC     C6  252   0.976   1.285   1.901 -0.2062 -0.3711  0.2436
    1_EC     O1  253   0.861   2.743   2.333 -0.2256 -0.1198  0.4899
    1_EC     C2  254   0.880   2.632   2.374  0.1369 -0.0825  0.4328
    1_EC     O3  255   0.814   2.569   2.475  0.1015 -0.1330  0.3781
    1_EC     O4  256   0.919   2.538   2.284 -0.0200 -0.1221  0.4046
    1_EC     C5  257   0.861   2.434   2.480 -0.0512 -0.2098 -0.2126
    1_EC     C6  258   0.959   2.426   2.364  0.5360 -0.0231  0.2687
    1_EC     O1  259   2.796   0.763   2.741  0.1097 -0.2418  0.2061
    1_EC     C2  260   2.737   0.783   2.844 -0.4560  0.4294 -0.2402
    1_EC     O3  261   2.630   0.716   2.893 -0.3846 -0.0905 -0.7851
    1_EC     O4  262   2.739   0.901   2.913 -0.1919  0.4146 -0.2207
    1_EC     C5  263   2.588   0.766   3.020  0.0040 -0.2677 -0.5860
    1_EC     C6  264   2.701   0.864   3.046 -0.1238 -0.1786 -0.3603
    1_EC     O1  265   1.890   0.307   1.007 -0.1809 -0.3925  0.1644
    1_EC     C2  266   1.921   0.390   0.926  0.6183 -0.3689  0.4930
    1_EC     O3  267   1.971   0.356   0.804 -0.4534 -0.0927 -0.0292
    1_EC     O4  268   1.877   0.519   0.920  0.3600 -0.4589  0.4604
    1_EC     C5  269   2.005   0.482   0.746  0.1697  0.0237  0.5749
    1_EC     C6  270   1.964   0.596   0.837  0.0667 -0.0097  0.5703
    1_EC     O1  271   2.306   0.175   3.194  0.3752  0.1184 -0.3072
    1_EC     C2  272   2.240   0.145   3.290  0.1916  0.1573 -0.4215
    1_EC     O3  273   2.287   0.072   3.395  0.1207  0.7714  0.0422
    1_EC     O4  274   2.114   0.100   3.267  0.0000  0.4684  0.0231
    1_EC     C5  275   2.177   0.060   3.484 -0.0470  0.3619 -0.2186
    1_EC     C6  276   2.055   0.077   3.395 -0.1661 -0.2882 -0.1869
    1_EC     O1  277   0.845   3.897   3.475  0.2012  0.3045 -0.5554
    1_EC     C2  278   0.749   3.869   3.540  0.2654 -0.2807 -0.7104
    1_EC     O3  279   0.706   3.936   3.650  0.0427 -0.1651 -0.8674
    1_EC     O4  280   0.656   3.777   3.503  0.3662 -0.5823 -0.2290
    1_EC     C5  281   0.592   3.874   3.711  0.2755  0.3679  0.1395
    1_EC     C6  282   0.574   3.755   3.618  0.6765  0.2876  0.1621
    1_EC     O1  283   1.729   1.123   2.312 -0.2324  0.1044 -0.1095
    1_EC     C2  284   1.738   1.229   2.368  0.2543 -0.0896  0.1905
    1_EC     O3  285   1.808   1.339   2.329  0.2085 -0.1191  0.0244
    1_EC     O4  286   1.626   1.289   2.417  0.3363  0.0889  0.1583
    1_EC     C5  287   1.806   1.433   2.437 -0.2102  0.2750 -0.3239
    1_EC     C6  288   1.668   1.402   2.493  0.2762 -0.2059  0.6285
    1_EC     O1  289   2.347   0.650   0.213  0.0920  0.2544  0.1463
    1_EC     C2  290   2.231   0.663   0.186  0.0630 -0.2325  0.0300
    1_EC     O3  291   2.181   0.748   0.092  0.1918  0.0109  0.1834
    1_EC     O4  292   2.130   0.624   0.268  0.4824  0.1455  0.7358
    1_EC     C5  293   2.039   0.751   0.106  0.2159  0.0069  0.4445
    1_EC     C6  294   2.009   0.629   0.192  0.6670 -0.1279  0.4175
    1_EC     O1  295   1.215   0.732   2.806 -0.0002  0.6227  0.1075
    1_EC     C2  296   1.279   0.651   2.866  0.4597  0.5356 -0.4926
    1_EC     O3  297   1.351   0.671   2.980  0.0382  0.2196 -0.1674
    1_EC     O4  298   1.341   0.540   2.818  0.2971  0.2890 -0.1359
    1_EC     C5  299   1.348   0.544   3.046 -0.0271  0.1336 -0.3354
    1_EC     C6  300   1.348   0.448   2.927  0.3061  0.0891 -0.3020
    1_EC     O1  301   1.390   0.701   2.063 -0.0347  0.6934 -0.0529
    1_EC     C2  302   1.416   0.685   1.946 -0.0932  0.4423 -0.0327
    1_EC     O3  303   1.326   0.644   1.853  0.2771  0.5652 -0.4431
    1_EC     O4  304   1.489   0.781   1.884  0.3500  0.1432  0.0229
    1_EC     C5  305   1.407   0.613   1.739 -0.2063  0.2154 -0.6946
    1_EC     C6  306   1.522   0.709   1.766 -0.0185 -0.2280  0.1451
    1_EC     O1  307   1.007   2.043   1.733  0.2690 -0.2017  0.1107
    1_EC     C2  308   1.075   2.141   1.745  0.1058 -0.1045  0.2485
    1_EC     O3  309   1.032   2.262   1.700  0.1092 -0.1180  0.2093
    1_EC     O4  310   1.163   2.158   1.848  0.6453 -0.3661 -0.1676
    1_EC     C5  311   1.142   2.352   1.717  0.2864 -0.3353  0.2226
    1_EC     C6  312   1.233   2.278   1.814  0.4246 -0.1145  0.2622
    1_EC     O1  313   2.193   1.546   1.969  0.1754  0.0159  0.2863
    1_EC     C2  314   2.301   1.550   1.916  0.1548  0.2267  0.2574
    1_EC     O3  315   2.326   1.637   1.815 -0.4883 -0.1847 -0.2702
    1_EC     O4  316   2.423   1.522   1.969  0.1212 -0.5574 -0.0556
    1_EC     C5  317   2.442   1.589   1.746  0.0481  0.5095  0.1302
    1_EC     C6  318   2.503   1.499   1.853  0.1122  0.1487 -0.2094
    1_EC     O1  319   3.362   1.072   0.681 -0.6005 -0.6225  0.2644
    1_EC     C2  320   3.354   1.168   0.610 -0.1096 -0.5486  0.3039
    1_EC     O3  321   3.357   1.143   0.477  0.4345  0.4337  0.1209
    1_EC     O4  322   3.435   1.277   0.621 -0.4166 -0.2713 -0.1274
    1_EC     C5  323   3.342   1.270   0.414 -0.3515  0.3502  0.1321
    1_EC     C6  324   3.407   1.365   0.513  0.7153  0.0016 -0.2153
    1_EC     O1  325   2.387   1.539   3.399 -0.2665 -0.0410 -0.2453
    1_EC     C2  326   2.305   1.473   3.457 -0.4527  0.3482 -0.0598
    1_EC     O3  327   2.181   1.437   3.416 -0.4378  0.1415  0.0786
    1_EC     O4  328   2.322   1.437   3.587 -0.4329  0.2361 -0.0931
    1_EC     C5  329   2.126   1.342   3.507  0.1602 -0.1181  0.1727
    1_EC     C6  330   2.243   1.319   3.600 -0.0649  0.0574  0.5034
    1_EC     O1  331   1.817   3.877   1.304 -0.0254 -0.1055 -0.0424
    1_EC     C2  332   1.734   3.877   1.391  0.1745 -0.2431  0.1481
    1_EC     O3  333   1.614   3.814   1.377 -0.0638  0.3255 -0.4128
    1_EC     O4  334   1.722   3.965   1.493 -0.0593 -0.1470  0.0401
    1_EC     C5  335   1.535   3.846   1.491  0.3403  0.4192 -0.1578
    1_EC     C6  336   1.643   3.892   1.588  0.3252 -0.3313  0.2232
    1_EC     O1  337   2.772   1.393   1.674  0.4390  0.2268  0.0346
    1_EC     C2  338   2.888   1.402   1.646  0.4371  0.4271  0.0893
    1_EC     O3  339   2.989   1.402   1.738  0.2081 -0.0515  0.3442
    1_EC     O4  340   2.938   1.310   1.559  0.0471 -0.1425  0.4590
    1_EC     C5  341   3.106   1.426   1.660  0.1218 -0.5927  0.0440
    1_EC     C6  342   3.066   1.365   1.526  0.1073 -0.5313  0.0204
    1_EC     O1  343   0.529   2.658   1.373 -0.0265 -0.3771  0.2978
    1_EC     C2  344   0.427   2.707   1.334  0.0447 -0.5550 -0.1219
    1_EC     O3  345   0.335   2.773   1.410 -0.1963 -0.6809 -0.3024
    1_EC     O4  346   0.378   2.708   1.208 -0.1412  0.0109 -0.0494
    1_EC     C5  347   0.208   2.784   1.345 -0.2673 -0.6218 -0.1547
    1_EC     C6  348   0.258   2.785   1.201  0.1025  0.3919 -0.0227
    1_EC     O1  349   0.643   3.158   3.814  0.4212  0.5246  0.2440
    1_EC     C2  350   0.557   3.235   3.846 -0.1321  0.1277 -0.2690
    1_EC     O3  351   0.571   3.369   3.829  0.2955  0.1920  0.5325
    1_EC     O4  352   0.426   3.208   3.820 -0.0528 -0.0776 -0.4615
    1_EC     C5  353   0.471   3.419   3.918  0.4418  0.1635  0.7134
    1_EC     C6  354   0.362   3.318   3.886  0.7252  0.0467  0.0996
    1_EC     O1  355   0.336   3.223   2.473 -0.5380  0.0264  0.3422
    1_EC     C2  356   0.418   3.294   2.526 -0.2669  0.1696 -0.2589
    1_EC     O3  357   0.549   3.257   2.524 -0.2780  0.0752  0.5428
    1_EC     O4  358   0.413   3.429   2.518 -0.0793  0.2211  0.4803
    1_EC     C5  359   0.616   3.354   2.605  0.2328  0.6921 -0.5928
    1_EC     C6  360   0.521   3.472   2.602 -0.1395  0.4334  0.4500
    1_EC     O1  361   2.684   1.998   3.030  0.1802 -0.3387  0.4021
    1_EC     C2  362   2.651   1.889   2.991 -0.2130 -0.1769  0.2710
    1_EC     O3  363   2.536   1.852   2.929 -0.2664  0.1541  0.1712
    1_EC     O4  364   2.721   1.776   3.022  0.2765 -0.1076 -0.5356
    1_EC     C5  365   2.526   1.709   2.928  0.7377  0.0783  0.1915
    1_EC     C6  366   2.667   1.660   2.958  0.5950 -0.5121 -0.0818
    1_EC     O1  367   3.255   3.077   0.695 -0.0389 -0.6189 -0.1555
    1_EC     C2  368   3.338   3.108   0.615 -0.6483 -0.5520 -0.7744
    1_EC     O3  369   3.332   3.225   0.545 -0.3577  0.0306  0.1482
    1_EC     O4  370   3.439   3.032   0.564 -0.0551 -0.4588  0.2171
    1_EC     C5  371   3.461   3.245   0.488 -0.2357 -0.2970  0.3020
    1_EC     C6  372   3.541   3.130   0.547 -0.2199 -0.2648  0.3431
    1_EC     O1  373   1.003   1.768   1.492  0.0170  0.5617  0.4853
    1_EC     C2  374   1.063   1.856   1.436  0.3690 -0.1858 -0.3405
    1_EC     O3  375   1.198   1.866   1.435  0.3415  0.2087 -0.8058
    1_EC     O4  376   1.030   1.886   1.307 -0.2841  0.1612 -0.0967
    1_EC     C5  377   1.226   1.993   1.375  0.1116  0.6747  0.0521
    1_EC     C6  378   1.106   2.004   1.283  0.2077 -0.1708 -0.1881
    1_EC     O1  379   0.954   2.372   1.966  0.1252 -0.1273 -0.1276
    1_EC     C2  380   0.961   2.492   1.962 -0.0789 -0.1148 -0.1363
    1_EC     O3  381   1.070   2.549   1.906  0.0425 -0.5211 -0.3211
    1_EC     O4  382   0.860   2.572   1.920 -0.0389  0.2145  0.3855
    1_EC     C5  383   1.053   2.688   1.935 -0.2824 -0.4902 -0.6459
    1_EC     C6  384   0.903   2.705   1.953 -0.1257  0.3430 -0.0130
    1_EC     O1  385   2.301   0.389   3.572  0.1396  0.4660 -0.2579
    1_EC     C2  386   2.199   0.441   3.539 -0.1916 -0.2243 -0.3444
    1_EC     O3  387   2.204   0.560   3.473 -0.2095  0.2165  0.4328
    1_EC     O4  388   2.093   0.378   3.482 -0.4612 -0.2652  0.1897
    1_EC     C5  389   2.068   0.601   3.459 -0.2655 -0.1447 -0.0895
    1_EC     C6  390   1.988   0.474   3.480 -0.3019 -0.0922  0.0867
    1_EC     O1  391   3.665   0.932   0.087 -0.1188  0.0790  0.1723
    1_EC     C2  392   3.551   0.935   0.123 -0.1578  0.0468  0.0484
    1_EC     O3  393   3.478   1.048   0.103  0.0248  0.1038 -0.3066
    1_EC     O4  394   3.508   0.899   0.247 -0.3360  0.2638  0.0508
    1_EC     C5  395   3.344   1.006   0.127  0.1404 -0.1066 -0.0270
    1_EC     C6  396   3.366   0.896   0.230 -0.3182 -0.2021 -0.0290
    1_EC     O1  397   1.716   0.229   0.696  0.0831 -0.8124 -0.1193
    1_EC     C2  398   1.714   0.321   0.618  0.6453  0.0079  0.8061
    1_EC     O3  399   1.665   0.444   0.648 -0.2409 -0.1140 -0.0958
    1_EC     O4  400   1.803   0.336   0.516 -0.4160 -0.2678 -0.1830
    1_EC     C5  401   1.650   0.519   0.527  0.0526 -0.3140 -0.2565
    1_EC     C6  402   1.757   0.451   0.444  0.2921  0.0025 -0.2078
    1_EC     O1  403   2.349   0.864   1.236  0.0348 -0.8493 -0.2715
    1_EC     C2  404   2.444   0.819   1.293  0.3073 -0.0369 -0.0650
    1_EC     O3  405   2.465   0.847   1.424  0.0177  0.3673 -0.1047
    1_EC     O4  406   2.568   0.797   1.241  0.1664 -0.7562 -0.1066
    1_EC     C5  407   2.557   0.748   1.470 -0.1157  0.2143 -0.1681
    1_EC     C6  408   2.646   0.742   1.348  0.4038  0.1796  0.2087
    1_EC     O1  409   0.813   0.701   2.209  0.0454 -0.7170 -0.2864
    1_EC     C2  410   0.891   0.749   2.131  0.2054 -0.2141  0.1693
    1_EC     O3  411   0.991   0.829   2.176 -0.1987  0.2292  0.2879
    1_EC     O4  412   0.952   0.677   2.033 -0.2479  0.0854 -0.3440
    1_EC     C5  413   1.074   0.868   2.066 -0.4739 -0.0298 -0.0144
    1_EC     C6  414   1.045   0.760   1.964  0.0028 -0.0295 -0.1501
    1_EC     O1  415   0.112   2.813   3.850 -0.3403 -0.1076  0.3738
    1_EC     C2  416   0.068   2.897   3.777  0.5918  0.1426  0.0777
    1_EC     O3  417   0.109   3.027   3.781  0.1689  0.2768  0.1433
    1_EC     O4  418   0.055   2.875   3.643 -0.0510  0.2829  0.1143
    1_EC     C5  419   0.004   3.088   3.706  0.5016  0.6767  0.0031
    1_EC     C6  420  -0.018   2.988   3.594 -0.2252  0.3208  0.4535
    1_EC     O1  421   1.818   3.581   1.537  0.4257  0.0929 -0.2989
    1_EC     C2  422   1.931   3.597   1.575  0.3090 -0.0280  0.1075
    1_EC     O3  423   1.980   3.692   1.659 -0.1690  0.2583  0.0675
    1_EC     O4  424   2.005   3.488   1.608  0.0775 -0.1194  0.3313
    1_EC     C5  425   2.122   3.683   1.650 -0.2013  0.0689 -0.2598
    1_EC     C6  426   2.134   3.545   1.586 -0.3021  0.3245 -0.8412
    1_EC     O1  427   3.104   2.458   3.134  0.0019 -0.2943  0.2961
    1_EC     C2  428   2.993   2.421   3.106  0.0180 -0.2738  0.2064
    1_EC     O3  429   2.893   2.391   3.192  0.2415 -0.5508  0.3708
    1_EC     O4  430   2.933   2.466   2.992  0.4923  0.0970  0.0988
    1_EC     C5  431   2.785   2.336   3.116  0.5844 -0.3970 -0.2290
    1_EC     C6  432   2.806   2.403   2.981  0.5620 -0.0180 -0.0461
    1_EC     O1  433   3.546   1.162   2.327 -0.2984  0.1308 -0.1750
    1_EC     C2  434   3.572   1.279   2.327  0.0783  0.0490  0.3888
    1_EC     O3  435   3.476   1.375   2.317 -0.0868 -0.1315  0.2328
    1_EC     O4  436   3.670   1.335   2.251  0.2155 -0.5247  0.1444
    1_EC     C5  437   3.549   1.493   2.353  0.2225 -0.4631  0.6967
    1_EC     C6  438   3.685   1.472   2.288  0.0802 -0.5869  0.4365
    1_EC     O1  439   2.272   1.918   2.170 -0.6490 -0.8250 -0.2358
    1_EC     C2  440   2.343   1.946   2.078  0.0167 -0.6592  0.3175
    1_EC     O3  441   2.477   1.961   2.096 -0.0138 -0.3052  0.2567
    1_EC     O4  442   2.333   1.879   1.959 -0.1305 -0.1416  0.0371
    1_EC     C5  443   2.525   1.993   1.965 -0.8706 -0.6917 -0.1606
    1_EC     C6  444   2.415   1.952   1.868 -0.5891 -0.4138 -0.5985
    1_EC     O1  445   3.898   2.945   1.095  0.0499  0.3151  0.5349
    1_EC     C2  446   3.918   3.055   1.051 -0.0706  0.2210  0.2486
    1_EC     O3  447   3.962   3.075   0.924 -0.3601  0.2149  0.1469
    1_EC     O4  448   3.956   3.166   1.119  0.5218  0.1754 -0.0075
    1_EC     C5  449   3.923   3.209   0.890  0.1685  0.2069 -0.5134
    1_EC     C6  450   3.955   3.273   1.024 -0.1944 -0.0737 -0.2898
    1_EC     O1  451   0.110   3.865   0.973  0.4710  0.3824 -0.0838
    1_EC     C2  452   0.152   3.831   1.080  0.0495 -0.4510 -0.1728
    1_EC     O3  453   0.090   3.730   1.146 -0.6206  0.0090 -0.0911
    1_EC     O4  454   0.236   3.896   1.166 -0.5047 -0.2262  0.1996
    1_EC     C5  455   0.162   3.696   1.264 -0.2306  0.1984 -0.2734
    1_EC     C6  456   0.276   3.797   1.261  0.1217 -0.1869 -0.0208
    1_EC     O1  457   0.500   1.429   0.698 -0.0812 -0.2754  0.1227
    1_EC     C2  458   0.503   1.323   0.641 -0.0499 -0.1761 -0.0585
    1_EC     O3  459   0.417   1.220   0.665 -0.1081 -0.1891 -0.3241
    1_EC     O4  460   0.555   1.301   0.517 -0.2146  0.1553 -0.1896
    1_EC     C5  461   0.492   1.108   0.619  0.2088 -0.2553  0.3433
    1_EC     C6  462   0.553   1.161   0.490  0.1293  0.0263  0.4208
    1_EC     O1  463   3.765   0.436   1.603  0.3598  0.1039  0.3294
    1_EC     C2  464   3.786   0.406   1.489 -0.0499 -0.2569  0.3453
    1_EC     O3  465   3.866   0.300   1.458 -0.3280 -0.2598 -0.3781
    1_EC     O4  466   3.796   0.497   1.388 -0.2615 -0.2403  0.3396
    1_EC     C5  467   3.916   0.323   1.326 -0.1255  0.3124 -0.2057
    1_EC     C6  468   3.816   0.421   1.269 -0.4108  0.1712  0.0507
    1_EC     O1  469   3.563   0.177   1.615  0.3040  0.1387 -0.0034
    1_EC     C2  470   3.588   0.106   1.709  1.2187  0.2385 -0.1577
    1_EC     O3  471   3.617   0.145   1.836 -0.1227  0.2994  0.1482
    1_EC     O4  472   3.632  -0.021   1.688  0.0898 -0.2029  0.0800
    1_EC     C5  473   3.594   0.029   1.915  0.5316  0.4220  0.5285
    1_EC     C6  474   3.634  -0.081   1.817 -0.8342  0.1447  0.2623
    1_EC     O1  475   0.488   1.304   0.194  0.4440  0.2544  0.8400
    1_EC     C2  476   0.530   1.234   0.106 -0.5910  0.0658  0.4825
    1_EC     O3  477   0.451   1.204  -0.001 -0.1910 -0.0625  0.2226
    1_EC     O4  478   0.596   1.116   0.120 -0.7334 -0.0555  0.1333
    1_EC     C5  479   0.536   1.155  -0.104  0.2669  0.7674  0.1926
    1_EC     C6  480   0.639   1.089  -0.014 -0.2865 -0.0108  0.2667
    1_EC     O1  481   3.690   1.158   3.325  0.4732 -0.0593  0.2516
    1_EC     C2  482   3.725   1.117   3.218 -0.3780  0.1376 -0.1154
    1_EC     O3  483   3.633   1.065   3.134 -0.3998  0.4646 -0.2940
    1_EC     O4  484   3.820   1.179   3.143 -0.2763 -0.4534 -0.4809
    1_EC     C5  485   3.700   1.035   3.011 -0.0572  0.7290 -0.1695
    1_EC     C6  486   3.834   1.107   3.020  0.5061 -0.2517 -0.5171
    1_EC     O1  487   2.540   1.145   2.122  0.5855 -0.4122  0.3008
    1_EC     C2  488   2.641   1.158   2.058  0.3478 -0.4285 -0.0790
    1_EC     O3  489   2.668   1.080   1.950 -0.0700 -0.3064 -0.2727
    1_EC     O4  490   2.763   1.156   2.117  0.2371 -0.0513  0.1675
    1_EC     C5  491   2.786   1.134   1.891  0.0245  0.1366  0.3058
    1_EC     C6  492   2.854   1.193   2.013  0.0165  0.4615  0.1543
    1_EC     O1  493   0.469   1.721   2.518  0.7190 -0.6364  0.1714
    1_EC     C2  494   0.383   1.744   2.598  0.4619 -0.5577 -0.1246
    1_EC     O3  495   0.286   1.653   2.625  0.1467 -0.0898  0.3439
    1_EC     O4  496   0.394   1.827   2.706  0.4026  0.0607 -0.5881
    1_EC     C5  497   0.193   1.726   2.705  0.0756  0.3252 -0.1111
    1_EC     C6  498   0.284   1.808   2.795  0.4145  0.3837 -0.5037
    1_EC     O1  499   3.160   2.012   2.055 -0.2619 -0.1439 -0.2474
    1_EC     C2  500   3.069   2.084   2.086  0.3324  0.1119  0.9520
    1_EC     O3  501   3.019   2.164   1.988  0.6198 -0.1833  0.5585
    1_EC     O4  502   2.952   2.032   2.132 -0.0485  0.2346  0.1368
    1_EC     C5  503   2.927   2.244   2.063  0.6724  0.2359  0.1781
    1_EC     C6  504   2.872   2.146   2.165 -0.1372  0.2739 -0.2105
    1_EC     O1  505   1.796   2.433   1.258 -0.2866 -0.2592  0.0435
    1_EC     C2  506   1.818   2.433   1.376 -0.2369 -0.2210  0.0343
    1_EC     O3  507   1.891   2.538   1.422  0.3804 -0.6148 -0.0436
    1_EC     O4  508   1.718   2.415   1.467 -0.2311  0.0736  0.1021
    1_EC     C5  509   1.906   2.511   1.562 -0.9159 -0.3380  0.1630
    1_EC     C6  510   1.788   2.421   1.592 -0.7750 -0.4330  0.4362
    1_EC     O1  511   2.910   3.809   3.329 -0.0301 -0.3650  0.2280
    1_EC     C2  512   2.928   3.791   3.447 -0.6995 -0.3920  0.3300
    1_EC     O3  513   2.965   3.667   3.488  0.4935 -0.1869 -0.1064
    1_EC     O4  514   2.998   3.875   3.527 -0.3105 -0.6471  0.2615
    1_EC     C5  515   2.950   3.675   3.630  0.2172 -0.1818 -0.1359
    1_EC     C6  516   2.966   3.823   3.657  0.4131 -0.3289  0.5687
    1_EC     O1  517   1.224   3.956   0.130  0.2884  0.1292 -0.0226
    1_EC     C2  518   1.324   4.003   0.083  0.1242 -0.0254 -0.5277
    1_EC     O3  519   1.438   4.006   0.156 -0.2139  0.2073 -0.0033
    1_EC     O4  520   1.325   4.098  -0.015 -0.1899  0.3510 -0.1706
    1_EC     C5  521   1.535   4.055   0.062  0.1068  0.3604  0.4015
    1_EC     C6  522   1.455   4.158  -0.017  0.0205 -0.0982 -0.1181
    1_EC     O1  523   3.896   1.427   0.229  0.0404 -0.0792 -0.3741
    1_EC     C2  524   3.860   1.324   0.280  0.0437  0.1802  0.1625
    1_EC     O3  525   3.741   1.303   0.342 -0.0841  0.0671 -0.1201
    1_EC     O4  526   3.912   1.202   0.252  0.0867  0.2747 -0.1805
    1_EC     C5  527   3.740   1.171   0.398  0.1706  0.2970  0.4282
    1_EC     C6  528   3.834   1.095   0.306 -0.0270  0.4835  0.0718
    1_EC     O1  529   3.768   0.349   3.172  0.2810  0.0818 -0.0097
    1_EC     C2  530   3.768   0.301   3.062 -0.5630 -0.1234  0.0753
    1_EC     O3  531   3.663   0.310   2.976 -0.5449  0.1154  0.0785
    1_EC     O4  532   3.876   0.314   2.980 -0.3929 -0.2739  0.2741
    1_EC     C5  533   3.705   0.228   2.866  0.0125  0.1849  0.2380
    1_EC     C6  534   3.856   0.213   2.881  0.0184 -0.0428 -0.0489
    1_EC     O1  535   3.277   1.972   2.646 -0.0255 -0.4093  0.1230
    1_EC     C2  536   3.340   1.905   2.724  0.4365 -0.0826  0.0350
    1_EC     O3  537   3.357   1.951   2.851 -0.2078  0.3492 -0.0296
    1_EC     O4  538   3.465   1.861   2.691  0.3738  0.2124 -0.6093
    1_EC     C5  539   3.436   1.848   2.912 -0.4824  0.0264 -0.2132
    1_EC     C6  540   3.494   1.769   2.796  0.3615  0.6433 -0.2250
    1_EC     O1  541   3.301   0.249   3.015  0.2388 -0.1834 -0.1329
    1_EC     C2  542   3.378   0.178   3.072  0.1766 -0.0920  0.0641
    1_EC     O3  543   3.447   0.077   3.015 -0.1271 -0.1265 -0.2429
    1_EC     O4  544   3.462   0.228   3.167 -0.0304  0.0697  0.1639
    1_EC     C5  545   3.498   0.004   3.127 -0.0644 -0.1946 -0.3151
    1_EC     C6  546   3.490   0.107   3.238 -0.0928 -0.2172 -0.2962
    1_EC     O1  547   0.324   1.158   1.099 -0.0518 -0.3145 -0.7723
    1_EC     C2  548   0.323   1.275   1.074  0.6737 -0.1922 -0.2755
    1_EC     O3  549   0.390   1.365   1.151  0.0489 -0.2393  0.3297
    1_EC     O4  550   0.220   1.344   1.017  0.2847 -0.2025  0.4072
    1_EC     C5  551   0.401   1.482   1.069 -0.0618 -0.4797 -0.0301
    1_EC     C6  552   0.279   1.468   0.978 -0.2051 -0.0647  0.0979
    1_EC     O1  553   3.451   2.729   1.984 -0.3652 -0.2481 -0.1232
    1_EC     C2  554   3.565   2.709   1.953 -0.2349  0.3147 -0.0148
    1_EC     O3  555   3.590   2.622   1.852 -0.2471  0.1290  0.1422
    1_EC     O4  556   3.672   2.714   2.037 -0.1046  0.0571 -0.1635
    1_EC     C5  557   3.732   2.623   1.831 -0.1748 -0.9930  0.5015
    1_EC     C6  558   3.785   2.662   1.968  0.1131  0.2369  0.0554
    1_EC     O1  559   2.690   3.111   2.492  0.4939  0.0639  0.5794
    1_EC     C2  560   2.681   3.185   2.586  0.3625  0.0878  0.5491
    1_EC     O3  561   2.622   3.308   2.592  0.0714 -0.0513  0.5078
    1_EC     O4  562   2.651   3.144   2.711 -0.1529  0.4815  0.5585
    1_EC     C5  563   2.662   3.366   2.716  0.0054 -0.3357  0.6623
    1_EC     C6  564   2.698   3.245   2.801  0.0578 -0.0481  1.0511
    1_EC     O1  565   1.676   1.117   1.345  0.0386  0.1911  0.0053
    1_EC     C2  566   1.750   1.182   1.277 -0.1024 -0.3416 -0.6676
    1_EC     O3  567   1.712   1.301   1.225  0.0023 -0.2027 -0.4255
    1_EC     O4  568   1.816   1.131   1.169  0.3568 -0.8620 -0.1495
    1_EC     C5  569   1.820   1.360   1.152 -0.1951  0.2288 -0.3726
    1_EC     C6  570   1.901   1.236   1.121 -0.5893 -0.0823 -0.1599
    1_EC     O1  571   2.435   2.248   3.197 -0.0731  0.4620  0.1647
    1_EC     C2  572   2.424   2.225   3.079 -0.6001  0.1726  0.2644
    1_EC     O3  573   2.312   2.172   3.023 -0.3540  0.1734 -0.2367
    1_EC     O4  574   2.472   2.314   2.988  0.3001 -0.6651 -0.1023
    1_EC     C5  575   2.321   2.178   2.881  0.3304 -0.3571 -0.2207
    1_EC     C6  576   2.458   2.242   2.865  0.1920 -0.1092 -0.4167
    1_EC     O1  577   1.217   0.303   1.847 -0.5562  0.8713 -0.3927
    1_EC     C2  578   1.203   0.316   1.965  0.4729 -0.1220 -0.1526
    1_EC     O3  579   1.285   0.404   2.029 -0.3568  0.7746 -0.3028
    1_EC     O4  580   1.158   0.229   2.060  0.6128 -0.0526 -0.0207
    1_EC     C5  581   1.229   0.423   2.159  0.7700 -0.5258  0.4075
    1_EC     C6  582   1.128   0.310   2.173 -0.7521  0.6295 -0.8401
    1_EC     O1  583   0.437   2.126   1.960 -0.1145 -0.1855 -0.2971
    1_EC     C2  584   0.420   2.025   2.024 -0.5679  0.4486  0.6046
    1_EC     O3  585   0.519   1.985   2.108 -0.1886 -0.3678 -0.2241
    1_EC     O4  586   0.391   1.906   1.967  0.2264  0.1745  0.7557
    1_EC     C5  587   0.474   1.868   2.176  0.4743 -0.6869 -0.3223
    1_EC     C6  588   0.395   1.801   2.064 -0.0355 -0.5786 -0.0271
    1_EC     O1  589   2.635   1.140   0.721  0.2685 -0.0433  0.1676
    1_EC     C2  590   2.622   1.088   0.828 -0.0872  0.1113  0.2011
    1_EC     O3  591   2.514   1.016   0.868 -0.0860  0.2314  0.4215
    1_EC     O4  592   2.724   1.019   0.886 -0.0623  0.3252  0.4102
    1_EC     C5  593   2.541   0.985   1.006 -0.3856  0.0519  0.4418
    1_EC     C6  594   2.692   0.984   1.021 -0.3587 -0.4109  0.1498
    1_EC     O1  595   1.659   3.740   0.049 -0.2401 -0.5771  1.0036
    1_EC     C2  596   1.590   3.686  -0.032 -0.1284  0.2327  0.3552
    1_EC     O3  597   1.636   3.616  -0.140 -0.6436  0.3097  0.0816
    1_EC     O4  598   1.474   3.623   0.003  0.0308 -0.2626  0.0145
    1_EC     C5  599   1.520   3.583  -0.217 -0.3665  0.1471 -0.2700
    1_EC     C6  600   1.405   3.613  -0.122 -0.1172  0.0243  0.0722
    1_EC     O1  601   2.319   3.422   2.856  0.1937 -0.6104  0.1137
    1_EC     C2  602   2.291   3.316   2.807 -0.6051 -0.2131 -0.3161
    1_EC     O3  603   2.236   3.214   2.878 -0.1271 -0.1344  0.1769
    1_EC     O4  604   2.368   3.256   2.712  0.2992  0.5141 -0.0577
    1_EC     C5  605   2.210   3.113   2.781 -0.6072  0.2140 -0.0610
    1_EC     C6  606   2.289   3.151   2.657  0.5931 -0.0619  0.6126
    1_EC     O1  607   0.701   0.221   2.638 -0.1589  0.5693  0.3064
    1_EC     C2  608   0.721   0.280   2.536  0.0905 -0.0491 -0.0071
    1_EC     O3  609   0.828   0.364   2.531  0.2947 -0.3137 -0.1278
    1_EC     O4  610   0.622   0.352   2.476  0.2026 -0.1412 -0.3075
    1_EC     C5  611   0.834   0.414   2.398  0.4464  0.2859  0.1023
    1_EC     C6  612   0.685   0.417   2.366  0.5083 -0.3748 -0.2730
    1_EC     O1  613   3.286   1.608   2.622  0.2327  0.4925 -0.0415
    1_EC     C2  614   3.231   1.530   2.550  0.8214  0.3257 -0.3114
    1_EC     O3  615   3.239   1.394   2.559 -0.3823  0.3104  0.8189
    1_EC     O4  616   3.205   1.553   2.418  0.6115 -0.0373 -0.3352
    1_EC     C5  617   3.141   1.337   2.471  0.2512  0.7276 -0.1781
    1_EC     C6  618   3.121   1.448   2.369 -0.1651  0.5544 -0.2851
    1_EC     O1  619   1.865   2.913   3.721 -0.0920  0.7520 -0.2598
    1_EC     C2  620   1.920   2.970   3.631 -0.1303  0.8540 -0.2195
    1_EC     O3  621   1.887   2.980   3.499 -0.3501 -0.3157 -0.2626
    1_EC     O4  622   2.041   3.028   3.651 -0.2744  1.0851 -0.0171
    1_EC     C5  623   2.003   3.023   3.427 -0.1272 -0.4591  0.0071
    1_EC     C6  624   2.071   3.105   3.535 -0.0625  0.2175 -0.5475
    1_EC     O1  625   2.560   1.907   0.726  0.3134  0.0736 -0.1018
    1_EC     C2  626   2.462   1.879   0.664  0.0902  0.2096  0.1887
    1_EC     O3  627   2.372   1.974   0.627  0.0008  0.2121  0.4135
    1_EC     O4  628   2.452   1.785   0.566 -0.0279 -0.4739  0.8421
    1_EC     C5  629   2.257   1.901   0.583  0.3102 -0.2916  0.4464
    1_EC     C6  630   2.313   1.767   0.536  0.1426 -0.1356 -0.2021
    1_EC     O1  631   3.041   1.260   0.607 -0.3674 -0.0368  0.4311
    1_EC     C2  632   3.011   1.354   0.538  0.1670 -0.3795 -0.2916
    1_EC     O3  633   2.890   1.370   0.477  0.3452  0.7135 -0.3764
    1_EC     O4  634   3.058   1.481   0.550 -0.0172 -0.3299 -0.0831
    1_EC     C5  635   2.893   1.479   0.384 -0.3007  0.4434 -0.7174
    1_EC     C6  636   3.024   1.544   0.427  0.0762 -0.5963 -0.2454
    1_EC     O1  637   2.438   0.837   2.684 -0.0566 -0.0678 -0.3245
    1_EC     C2  638   2.441   0.717   2.675 -0.0414 -0.1057  0.1609
    1_EC     O3  639   2.526   0.658   2.587  0.0748  0.4609 -0.1120
    1_EC     O4  640   2.333   0.634   2.666 -0.0132 -0.2008  0.6581
    1_EC     C5  641   2.519   0.516   2.604  0.0469  0.5495  0.6808
    1_EC     C6  642   2.389   0.504   2.683 -0.2229 -0.3629  0.1067
    1_EC     O1  643   0.025   2.836   0.463 -0.1974 -0.6372 -0.0808
    1_EC     C2  644   0.132   2.786   0.442 -0.1331 -0.5336 -0.0003
    1_EC     O3  645   0.154   2.722   0.324 -0.4214 -0.6438  0.0065
    1_EC     O4  646   0.253   2.847   0.457 -0.5116  0.1274  0.3957
    1_EC     C5  647   0.270   2.644   0.356 -0.0641 -0.1476 -0.0696
    1_EC     C6  648   0.349   2.743   0.440 -0.6303  0.0435  0.2432
    1_EC     O1  649   3.476   0.128   0.328  0.4045  0.6083  0.2488
    1_EC     C2  650   3.503   0.146   0.213 -0.3897 -0.6328 -0.1551
    1_EC     O3  651   3.447   0.063   0.121 -0.1304 -0.2850 -0.6349
    1_EC     O4  652   3.604   0.217   0.155 -0.2029 -0.4703  0.3605
    1_EC     C5  653   3.515   0.086  -0.002 -0.0408  0.2882 -0.4821
    1_EC     C6  654   3.569   0.227   0.016  0.6424 -0.0536  0.1739
    1_EC     O1  655   0.372   1.496   1.475 -0.6678 -0.1542 -0.4164
    1_EC     C2  656   0.412   1.517   1.586 -0.7434 -0.1414 -0.3917
    1_EC     O3  657   0.533   1.483   1.636 -0.9510  0.2060  0.3567
    1_EC     O4  658   0.336   1.567   1.687  0.0844  0.0286  0.1515
    1_EC     C5  659   0.544   1.508   1.777  0.2610 -0.6436  0.4278
    1_EC     C6  660   0.396   1.519   1.808  0.1817 -0.3415 -0.0422
    1_EC     O1  661   1.477   0.406   3.323  0.1135 -0.3259  0.0069
    1_EC     C2  662   1.560   0.327   3.286  0.2478 -0.0357 -0.3171
    1_EC     O3  663   1.540   0.236   3.187  0.2482  0.4633 -0.7809
    1_EC     O4  664   1.695   0.342   3.290  0.2354  0.0692 -0.2828
    1_EC     C5  665   1.630   0.130   3.221 -0.3640  0.1179 -0.1978
    1_EC     C6  666   1.744   0.207   3.286 -0.6307 -0.2911  0.7677
    1_EC     O1  667   2.948   0.656   3.880 -0.0051 -0.5709  0.0637
    1_EC     C2  668   2.864   0.648   3.965 -0.1513  0.2407  0.0021
    1_EC     O3  669   2.755   0.728   3.963 -0.4162 -0.1154  0.1552
    1_EC     O4  670   2.898   0.640   4.097 -0.4192  0.0519  0.0600
    1_EC     C5  671   2.675   0.684   4.073 -0.4149 -0.8678 -0.1414
    1_EC     C6  672   2.775   0.619   4.167 -0.2418  0.1680  0.4072
    1_EC     O1  673   1.879   3.494   2.021 -0.2787  0.3039 -0.0019
    1_EC     C2  674   1.856   3.605   1.982 -0.3039  0.3743  0.2109
    1_EC     O3  675   1.940   3.711   1.999 -0.1051  0.2503  0.0072
    1_EC     O4  676   1.776   3.642   1.878 -0.5997 -0.3701  0.1676
    1_EC     C5  677   1.905   3.819   1.912  0.3406  0.0596 -0.4172
    1_EC     C6  678   1.760   3.784   1.883  0.4175 -0.2215 -0.4655
    1_EC     O1  679   1.524   0.127   1.852  0.1220 -0.2257  0.3721
    1_EC     C2  680   1.573   0.186   1.944  0.2334  0.2227  0.0247
    1_EC     O3  681   1.511   0.264   2.037 -0.3019  0.4124 -0.4891
    1_EC     O4  682   1.707   0.212   1.941  0.3422 -0.2274  0.8246
    1_EC     C5  683   1.612   0.339   2.103 -0.1550  0.0360 -0.2803
    1_EC     C6  684   1.745   0.277   2.063  0.1764  0.0867  0.7094
    1_EC     O1  685   1.909   1.772   2.517  0.0432 -0.3487  0.2270
    1_EC     C2  686   1.977   1.739   2.424 -0.2807 -0.0989 -0.1000
    1_EC     O3  687   1.926   1.685   2.309 -0.0702  0.0899 -0.2836
    1_EC     O4  688   2.081   1.654   2.447 -0.6642 -0.5382  0.0149
    1_EC     C5  689   2.036   1.668   2.220  0.2524 -0.2213  0.1687
    1_EC     C6  690   2.145   1.635   2.321  0.1866  0.0989  0.3452
    1_EC     O1  691   1.317   0.055   3.023 -0.4318 -0.7114 -0.0455
    1_EC     C2  692   1.207   0.046   3.070 -0.2239 -0.3869  0.5177
    1_EC     O3  693   1.194   0.028   3.204  0.1302  0.4417  0.6672
    1_EC     O4  694   1.116  -0.042   3.020  0.1780 -0.4272 -0.1433
    1_EC     C5  695   1.055   0.013   3.234 -0.0152  0.1663 -0.1409
    1_EC     C6  696   0.998  -0.019   3.096  0.2154 -0.2065 -0.1517
    1_EC     O1  697   2.704   1.605   1.019  0.2615  0.0569  0.0636
    1_EC     C2  698   2.705   1.546   0.914  0.0710 -0.0819  0.1398
    1_EC     O3  699   2.595   1.495   0.853 -0.2147  0.7803 -0.0797
    1_EC     O4  700   2.794   1.580   0.818 -0.2435 -0.4591 -0.2884
    1_EC     C5  701   2.642   1.451   0.725  0.3713 -0.1466  0.4497
    1_EC     C6  702   2.737   1.564   0.688 -0.2213  0.0858 -0.3697
    1_EC     O1  703   2.307   1.192   1.819 -0.0907 -0.3701  0.1081
    1_EC     C2  704   2.314   1.076   1.847 -0.1621 -0.3499  0.2124
    1_EC     O3  705   2.382   0.988   1.768 -0.0876  0.1335 -0.2650
    1_EC     O4  706   2.209   1.008   1.900 -0.7225  0.1008 -0.3096
    1_EC     C5  707   2.385   0.870   1.848 -0.7290  0.2451 -0.0676
    1_EC     C6  708   2.272   0.889   1.948 -0.4983  0.4082  0.1649
    1_EC     O1  709   2.564   1.542   1.429  0.6379 -0.1864  0.5312
    1_EC     C2  710   2.632   1.472   1.360  0.1158 -0.3885  0.2110
    1_EC     O3  711   2.590   1.352   1.312 -0.7089  0.4199 -1.1245
    1_EC     O4  712   2.766   1.461   1.385  0.1578 -0.0777  0.1258
    1_EC     C5  713   2.692   1.311   1.221  0.2069  0.0383  0.0494
    1_EC     C6  714   2.811   1.393   1.267  0.2410 -0.0688  0.1529
    1_EC     O1  715   3.102   2.052   1.498 -0.1722 -0.0754 -0.3087
    1_EC     C2  716   3.161   1.984   1.577  0.0843  0.4600 -0.0419
    1_EC     O3  717   3.183   2.030   1.703 -0.2114  0.0335  0.1662
    1_EC     O4  718   3.278   1.922   1.547  0.0395  0.4637 -0.2247
    1_EC     C5  719   3.233   1.913   1.769 -0.2202 -0.0064  0.1021
    1_EC     C6  720   3.303   1.837   1.658 -0.6915  0.1408 -0.3032
    1_EC     O1  721   0.250   1.993   2.479 -0.2664  0.1533 -0.4405
    1_EC     C2  722   0.214   2.106   2.497  0.4627  0.3536 -0.2048
    1_EC     O3  723   0.304   2.199   2.539  0.5381  0.1092  0.1802
    1_EC     O4  724   0.096   2.136   2.557  0.3330 -0.0533 -0.2524
    1_EC     C5  725   0.232   2.320   2.560  0.4197  0.0716 -0.0068
    1_EC     C6  726   0.086   2.278   2.568  0.4633 -0.0669  0.0525
    1_EC     O1  727   3.431   0.902   3.533 -0.1118 -0.3047 -0.2886
    1_EC     C2  728   3.404   0.948   3.426 -0.3004  0.0700 -0.0830
    1_EC     O3  729   3.304   0.890   3.354 -0.3554  0.0517  0.0090
    1_EC     O4  730   3.392   1.080   3.393  0.2246  0.1581  0.0752
    1_EC     C5  731   3.321   0.944   3.223 -0.4813  0.4920  0.1728
    1_EC     C6  732   3.363   1.087   3.254  0.0555  0.3489  0.1203
    1_EC     O1  733   1.435   3.651   1.763 -0.3688  0.2983  0.2105
    1_EC     C2  734   1.437   3.594   1.869 -0.0056 -0.2762 -0.0954
    1_EC     O3  735   1.327   3.572   1.945  0.1600  0.0295  0.2400
    1_EC     O4  736   1.530   3.623   1.965  0.0921 -0.2749 -0.1898
    1_EC     C5  737   1.370   3.480   2.046  0.4416 -0.0861  0.0144
    1_EC     C6  738   1.517   3.517   2.061  0.3870  0.0505  0.2079
    1_EC     O1  739   1.132   0.754   1.432  0.2100  0.0869 -0.1155
    1_EC     C2  740   1.237   0.805   1.405  0.0600  0.2562 -0.3838
    1_EC     O3  741   1.353   0.785   1.474  0.4162 -0.7367 -1.2345
    1_EC     O4  742   1.281   0.804   1.276  0.4290 -0.0765 -0.2600
    1_EC     C5  743   1.445   0.879   1.418  0.2267  0.0801 -0.2014
    1_EC     C6  744   1.382   0.905   1.283 -0.2549  0.5921  0.1182
    1_EC     O1  745   1.527   3.463   2.491 -0.1258 -0.3315  1.0175
    1_EC     C2  746   1.430   3.533   2.481  0.2084 -0.0136 -0.1059
    1_EC     O3  747   1.430   3.627   2.383  0.1877  0.1440  0.0444
    1_EC     O4  748   1.304   3.482   2.484  0.2464 -0.0837  0.3090
    1_EC     C5  749   1.301   3.688   2.384  0.1514  0.0602  0.5171
    1_EC     C6  750   1.213   3.589   2.459  0.1869 -0.1367  0.2993
    1_EC     O1  751   1.143   2.334   0.621  0.6762 -0.2662  0.0955
    1_EC     C2  752   1.238   2.406   0.611  0.5052  0.0242  0.4981
    1_EC     O3  753   1.267   2.515   0.687  0.2999  0.3758  0.0731
    1_EC     O4  754   1.362   2.358   0.581  0.4668  0.0401  0.3116
    1_EC     C5  755   1.362   2.580   0.601 -0.0261 -0.0403 -0.6092
    1_EC     C6  756   1.441   2.468   0.536 -0.0126 -0.0055 -0.6521
    1_EC     O1  757   3.550   2.215   2.279 -0.6530 -0.7251 -0.0423
    1_EC     C2  758   3.498   2.256   2.179  0.1012 -0.0157 -0.1591
    1_EC     O3  759   3.572   2.287   2.070  0.5481 -0.3651  0.0416
    1_EC     O4  760   3.400   2.350   2.173 -0.2058 -0.3583 -0.6227
    1_EC     C5  761   3.474   2.291   1.966  0.5904  0.2440  0.0215
    1_EC     C6  762   3.351   2.343   2.039  0.1000  0.2115 -0.7684
    1_EC     O1  763   2.142   1.080   3.845 -0.2064 -0.6607  0.2733
    1_EC     C2  764   2.027   1.115   3.853  0.0756  0.3418  0.0619
    1_EC     O3  765   1.931   1.047   3.921  0.1790  0.0523 -0.0803
    1_EC     O4  766   1.966   1.180   3.751  0.2159 -0.2548 -0.4109
    1_EC     C5  767   1.811   1.125   3.919 -0.1374 -0.4359 -0.6978
    1_EC     C6  768   1.826   1.184   3.779  0.2045 -0.0277 -0.4936
    1_EC     O1  769   1.871   2.456   3.362 -0.7218 -0.1174 -0.2577
    1_EC     C2  770   1.944   2.379   3.305 -0.3624 -0.0020  0.0420
    1_EC     O3  771   2.027   2.288   3.363  0.5688  0.2915 -0.8097
    1_EC     O4  772   2.004   2.406   3.187 -0.3866 -0.0054  0.0288
    1_EC     C5  773   2.068   2.197   3.260 -0.2491 -0.3449 -0.5859
    1_EC     C6  774   2.040   2.278   3.135  0.2780  0.3053 -0.2908
    1_EC     O1  775   1.204   1.978   0.320 -0.1514 -0.5409 -0.5577
    1_EC     C2  776   1.318   2.015   0.308 -0.2978  0.2229  0.3055
    1_EC     O3  777   1.353   2.136   0.258 -0.3796  0.1959  0.1828
    1_EC     O4  778   1.428   1.938   0.285 -0.2700  0.2668  0.2910
    1_EC     C5  779   1.490   2.157   0.295 -0.2455 -0.1345 -0.1224
    1_EC     C6  780   1.536   2.018   0.334  0.0079  0.0114  0.1007
    1_EC     O1  781   2.609   0.297   0.869  0.1140  0.0872 -0.1320
    1_EC     C2  782   2.533   0.227   0.808 -0.3676  0.4217  0.0770
    1_EC     O3  783   2.537   0.091   0.820  0.2370  0.3664 -0.6253
    1_EC     O4  784   2.405   0.262   0.777 -0.4665  0.0869  0.1002
    1_EC     C5  785   2.448   0.042   0.719 -0.2483  0.0548 -0.0584
    1_EC     C6  786   2.367   0.164   0.679 -0.4508 -0.0011  0.1823
    1_EC     O1  787   2.126   0.561   1.160  0.0547 -0.6364  0.0894
    1_EC     C2  788   2.233   0.565   1.107 -0.0024 -0.9566 -0.0566
    1_EC     O3  789   2.350   0.534   1.170  0.2908  0.5972  0.2096
    1_EC     O4  790   2.250   0.531   0.977  0.3942  0.0404 -0.2812
    1_EC     C5  791   2.453   0.558   1.073  0.1644 -0.3488 -0.1666
    1_EC     C6  792   2.382   0.570   0.939  0.1960  0.9112 -0.0770
    1_EC     O1  793   0.178   2.499   1.050 -0.2019 -0.0791 -0.7194
    1_EC     C2  794   0.281   2.441   1.066 -0.1128 -0.0043 -1.0080
    1_EC     O3  795   0.375   2.417   0.970  0.3310 -0.5126 -0.4591
    1_EC     O4  796   0.292   2.320   1.127  0.2912  0.5303  0.0171
    1_EC     C5  797   0.494   2.370   1.033  0.2477 -0.3412 -0.1703
    1_EC     C6  798   0.431   2.306   1.156  0.2460 -0.0104  0.0007
    1_EC     O1  799   1.223   3.011   3.950  0.3087  0.4324  0.1570
    1_EC     C2  800   1.289   3.095   4.006  0.7942  0.2669 -0.1578
    1_EC     O3  801   1.319   3.092   4.139  0.3850 -0.0619 -0.0708
    1_EC     O4  802   1.264   3.227   3.986  0.1569  0.2496  0.4741
    1_EC     C5  803   1.400   3.206   4.166  0.5880 -0.2507  0.1244
    1_EC     C6  804   1.366   3.302   4.053  0.9014 -0.3047 -0.0168
    1_EC     O1  805   0.623   2.828   2.056  0.3255  0.4270 -0.4133
    1_EC     C2  806   0.562   2.869   2.151  0.0678  0.1320 -0.4520
    1_EC     O3  807   0.427   2.879   2.159  0.1110  0.4112 -0.0321
    1_EC     O4  808   0.605   2.978   2.219  0.7747 -0.6200  0.3377
    1_EC     C5  809   0.399   2.902   2.297  0.0019 -0.0984  0.0352
    1_EC     C6  810   0.526   2.975   2.338  0.3398 -0.6925  0.0510
    1_EC     O1  811   0.000   0.219   3.792  0.3577  0.1968 -0.1381
    1_EC     C2  812   0.012   0.304   3.708  0.1189  0.2136 -0.1565
    1_EC     O3  813   0.060   0.276   3.583 -0.5206 -0.0976 -0.3341
    1_EC     O4  814   0.085   0.416   3.732  0.2800 -0.0300  0.5073
    1_EC     C5  815   0.036   0.398   3.513  0.0870  0.2440  0.0419
    1_EC     C6  816   0.053   0.502   3.622  0.1855 -0.1715  0.4242
    1_EC     O1  817   1.153   1.072   3.858  0.3064  0.0577 -0.1869
    1_EC     C2  818   1.221   0.982   3.817  0.2999 -0.1742  0.2993
    1_EC     O3  819   1.179   0.888   3.728 -0.5086  0.2201  0.2452
    1_EC     O4  820   1.347   1.010   3.776  0.3139 -0.1663  0.3469
    1_EC     C5  821   1.295   0.804   3.730 -0.6481  0.0215 -0.0310
    1_EC     C6  822   1.417   0.895   3.727 -0.2596 -0.4860  0.2691
    1_EC     O1  823   3.759   2.950   2.648  0.3932  0.1182 -0.0566
    1_EC     C2  824   3.776   2.982   2.534 -0.5736 -0.3058 -0.3287
    1_EC     O3  825   3.897   3.006   2.476 -0.4485  0.1856  0.1277
    1_EC     O4  826   3.692   3.069   2.471 -0.0083  0.1469 -0.4702
    1_EC     C5  827   3.871   3.004   2.336 -0.7295 -0.9267  0.1832
    1_EC     C6  828   3.726   3.048   2.334 -0.4786 -0.1053 -0.5510
    1_EC     O1  829   1.403   0.344   0.335  0.6752 -0.3210  0.1226
    1_EC     C2  830   1.353   0.317   0.441 -0.2440 -0.5213 -0.3470
    1_EC     O3  831   1.428   0.248   0.532 -0.3425 -0.0404  0.1038
    1_EC     O4  832   1.261   0.393   0.506  0.4811 -0.1739  0.2907
    1_EC     C5  833   1.327   0.202   0.622 -0.4709 -0.2790 -0.1617
    1_EC     C6  834   1.237   0.324   0.630 -0.3339 -0.1957  0.1227
    1_EC     O1  835   1.949   0.674   2.348 -0.5401 -0.3185  0.1851
    1_EC     C2  836   1.863   0.725   2.281 -0.0345 -0.2252 -0.4005
    1_EC     O3  837   1.735   0.698   2.317 -0.0397  0.3246  0.0154
    1_EC     O4  838   1.860   0.739   2.146 -0.3267  0.0894 -0.3641
    1_EC     C5  839   1.651   0.782   2.239 -0.0963  0.1931 -0.0663
    1_EC     C6  840   1.741   0.813   2.120 -0.3882 -0.0006 -0.3413
    1_EC     O1  841   3.353   0.273   2.597  0.3468 -0.4426  0.2960
    1_EC     C2  842   3.335   0.159   2.629 -0.4795 -0.2027  0.7141
    1_EC     O3  843   3.275   0.067   2.548  0.4815 -0.1416 -0.0920
    1_EC     O4  844   3.439   0.095   2.688  0.0691 -0.1808 -0.1998
    1_EC     C5  845   3.271  -0.057   2.620 -0.2896 -0.0515  0.0308
    1_EC     C6  846   3.381  -0.031   2.722  0.1953 -0.2994 -0.4227
    1_EC     O1  847   3.572   3.423   1.922 -0.9457  0.2486 -0.5175
    1_EC     C2  848   3.523   3.411   2.031  0.5258 -0.9788  0.0299
    1_EC     O3  849   3.389   3.389   2.039  0.3508  0.1189  0.2209
    1_EC     O4  850   3.570   3.467   2.146 -0.4051  0.0032 -0.0542
    1_EC     C5  851   3.366   3.354   2.176 -0.3886  0.1843  0.1161
    1_EC     C6  852   3.500   3.386   2.240 -0.0298 -0.5565 -0.2487
    1_EC     O1  853   0.569   0.628   3.811 -0.2453 -0.0667 -0.2035
    1_EC     C2  854   0.467   0.660   3.866 -0.1252  0.2994 -0.1858
    1_EC     O3  855   0.454   0.776   3.935 -0.5361  0.4158 -0.4540
    1_EC     O4  856   0.350   0.650   3.797 -0.2674 -0.0469  0.0986
    1_EC     C5  857   0.323   0.768   3.991 -0.3702  0.5322 -0.0457
    1_EC     C6  858   0.250   0.675   3.896 -0.2608  0.4042 -0.0050
    1_EC     O1  859   0.225   1.042   3.780 -0.0933 -0.3347  0.8986
    1_EC     C2  860   0.188   1.148   3.823 -0.1096  0.0089  0.0545
    1_EC     O3  861   0.197   1.265   3.754  0.9255 -0.1334 -0.0666
    1_EC     O4  862   0.083   1.166   3.907 -0.2326  0.0767 -0.1118
    1_EC     C5  863   0.188   1.366   3.855  0.5233 -0.2489  0.0134
    1_EC     C6  864   0.114   1.293   3.966 -0.4426  0.2207 -0.3090
    1_EC     O1  865   0.411   0.285   0.648  0.0310  0.3891 -0.0043
    1_EC     C2  866   0.405   0.166   0.665 -0.2779  0.3163 -0.5789
    1_EC     O3  867   0.301   0.101   0.724  0.1002 -0.2747 -0.5629
    1_EC     O4  868   0.462   0.071   0.587  0.3038 -0.1729  0.4136
    1_EC     C5  869   0.341  -0.032   0.761  0.4005 -0.0105  0.0757
    1_EC     C6  870   0.455  -0.050   0.662  0.5386 -0.2693  0.2820
    1_EC     O1  871   2.924   0.434   1.987 -0.2491 -0.0568  0.5620
    1_EC     C2  872   2.993   0.529   2.011 -0.2789  0.2065 -0.3586
    1_EC     O3  873   2.962   0.628   2.099 -0.0803  0.1179 -0.1890
    1_EC     O4  874   3.092   0.574   1.929  0.2303 -0.1305  0.0684
    1_EC     C5  875   3.082   0.702   2.121 -0.4490  0.4931  0.5758
    1_EC     C6  876   3.148   0.693   1.984 -0.0072 -0.3714  0.8380
    1_EC     O1  877   0.836   1.334   2.539  0.1985 -0.0319  0.0095
    1_EC     C2  878   0.879   1.255   2.459 -0.0038 -0.0943 -0.0359
    1_EC     O3  879   0.993   1.276   2.389 -0.2218  0.6287 -0.1838
    1_EC     O4  880   0.799   1.194   2.366 -0.0051  0.3944 -0.3565
    1_EC     C5  881   1.016   1.164   2.302  0.4423  0.9105 -0.3769
    1_EC     C6  882   0.877   1.104   2.288  0.5289  0.6510 -0.1252
    1_EC     O1  883   0.125   2.654   2.899  0.0286 -0.4573 -0.0124
    1_EC     C2  884   0.237   2.654   2.857 -0.0703  0.5759 -0.3128
    1_EC     O3  885   0.274   2.558   2.768 -0.1529 -0.1493  0.4283
    1_EC     O4  886   0.346   2.676   2.936 -0.2314 -0.3530  0.1844
    1_EC     C5  887   0.407   2.591   2.727 -0.0022 -0.3480  0.7495
    1_EC     C6  888   0.451   2.683   2.839 -0.0592  0.1048  0.4030
    1_EC     O1  889   1.615   2.055   3.811  0.3489 -0.0453 -0.6188
    1_EC     C2  890   1.530   2.127   3.855  0.0886 -0.4882 -0.3834
    1_EC     O3  891   1.562   2.259   3.870 -0.0479 -0.4576 -0.3555
    1_EC     O4  892   1.410   2.127   3.792 -0.0792 -0.2231 -0.0719
    1_EC     C5  893   1.437   2.316   3.909  0.0855 -0.3250 -0.1165
    1_EC     C6  894   1.327   2.227   3.852 -0.0535 -0.4199  0.2966
    1_EC     O1  895   2.790   0.636   1.038 -0.4426  0.0802  0.2228
    1_EC     C2  896   2.888   0.598   1.096 -0.0759 -0.0018 -0.4506
    1_EC     O3  897   2.924   0.467   1.091  0.6019  0.1742 -0.2045
    1_EC     O4  898   2.910   0.629   1.226 -0.4555  0.1174 -0.4119
    1_EC     C5  899   3.047   0.460   1.165  0.4067  0.2841  0.1336
    1_EC     C6  900   3.030   0.566   1.272 -0.4474  0.3721 -0.0774
    1_EC     O1  901   0.952   2.170   2.689  0.5060  0.2899  0.2748
    1_EC     C2  902   0.833   2.160   2.703  0.4917 -0.0270 -0.0620
    1_EC     O3  903   0.751   2.269   2.706  0.0058 -0.3709 -0.5495
    1_EC     O4  904   0.755   2.069   2.639  0.3495  0.1670 -0.1657
    1_EC     C5  905   0.620   2.226   2.743  0.0097  0.0344 -0.0542
    1_EC     C6  906   0.622   2.083   2.691  0.4863 -0.0682  0.2497
    1_EC     O1  907   3.937   2.622   1.493  0.5469  0.4045  0.1387
    1_EC     C2  908   3.850   2.624   1.410  0.6830  0.5199  0.0007
    1_EC     O3  909   3.849   2.563   1.289  0.1289  0.5323 -0.0013
    1_EC     O4  910   3.767   2.731   1.403  0.0869  0.0655  0.0554
    1_EC     C5  911   3.715   2.569   1.238 -0.0497  0.4228  0.4478
    1_EC     C6  912   3.675   2.703   1.298 -0.4442  0.3047  0.4478
    1_EC     O1  913   1.150   2.528   1.117 -0.2098 -0.3731 -0.2239
    1_EC     C2  914   1.214   2.484   1.209 -0.1963  0.3214  0.1053
    1_EC     O3  915   1.311   2.559   1.268  0.4255  0.0373 -0.5341
    1_EC     O4  916   1.257   2.355   1.218 -0.0485  0.4216  0.8424
    1_EC     C5  917   1.366   2.481   1.374 -0.0049 -0.1017 -0.4140
    1_EC     C6  918   1.314   2.341   1.349  0.1935 -0.3765  0.6537
    1_EC     O1  919   0.153   2.322   0.310  0.5278  0.2144 -0.2221
    1_EC     C2  920   0.168   2.238   0.395 -0.3931 -0.2682 -0.5256
    1_EC     O3  921   0.227   2.118   0.367  0.1040 -0.1888  0.1475
    1_EC     O4  922   0.066   2.198   0.475  0.0536 -0.3203  0.0229
    1_EC     C5  923   0.229   2.033   0.482  0.0637 -0.1393  0.1853
    1_EC     C6  924   0.115   2.094   0.561 -0.0336 -0.2632  0.1413
    1_EC     O1  925   3.846   0.940   2.320  0.2775  0.8832 -0.0085
    1_EC     C2  926   3.755   0.941   2.242 -0.3616  0.2622  0.7073
    1_EC     O3  927   3.669   0.843   2.203  0.5333 -0.1263 -0.3473
    1_EC     O4  928   3.789   0.992   2.120 -0.4682  0.0326  0.5799
    1_EC     C5  929   3.585   0.893   2.099 -0.1345 -0.0864  0.2083
    1_EC     C6  930   3.671   1.004   2.040 -0.3167  0.1468  0.3740
    1_EC     O1  931   1.903   1.970   0.580 -0.8332 -0.6952  0.0300
    1_EC     C2  932   1.888   1.907   0.479  0.0780  0.7572 -1.0646
    1_EC     O3  933   1.998   1.845   0.427  0.0671 -0.3600  0.1701
    1_EC     O4  934   1.780   1.831   0.447  0.1347  0.2016  0.0149
    1_EC     C5  935   1.954   1.821   0.293 -0.3215  0.6455  0.1061
    1_EC     C6  936   1.810   1.778   0.318 -0.3219  0.4630 -0.2017
    1_EC     O1  937   1.972   1.177   2.588  0.4215 -0.8053  0.5358
    1_EC     C2  938   2.067   1.143   2.524  0.4893  0.5455 -0.1134
    1_EC     O3  939   2.131   1.024   2.537  0.0427  0.3359  0.1777
    1_EC     O4  940   2.163   1.232   2.488  0.4509  0.7180  0.2077
    1_EC     C5  941   2.242   1.019   2.447  0.0827  0.2985  0.2297
    1_EC     C6  942   2.270   1.166   2.419  0.3519  0.2936  0.4623
    1_EC     O1  943   1.006   0.414   0.894  0.0636  0.1044 -0.0563
    1_EC     C2  944   1.005   0.457   1.007 -0.0503  0.1924 -0.0908
    1_EC     O3  945   0.889   0.487   1.073  0.1745  0.0946  0.3503
    1_EC     O4  946   1.088   0.407   1.102 -0.0240  0.1309 -0.1463
    1_EC     C5  947   0.931   0.531   1.202  0.2493 -0.7957  0.6394
    1_EC     C6  948   1.074   0.484   1.221  0.4994 -0.2356  0.1590
    1_EC     O1  949   3.289   0.751   1.054  0.1149 -0.0341  0.3346
    1_EC     C2  950   3.365   0.659   1.044  0.3248  0.1634  0.0998
    1_EC     O3  951   3.362   0.548   1.122  0.8779  0.1404  0.0896
    1_EC     O4  952   3.418   0.614   0.928  0.2930 -0.5069  0.3386
    1_EC     C5  953   3.475   0.466   1.090  0.4804 -0.3714 -0.0102
    1_EC     C6  954   3.529   0.531   0.963  0.5495 -0.2871  0.0628
    1_EC     O1  955   0.423   1.600   0.029  0.0963  0.6088  0.4741
    1_EC     C2  956   0.376   1.594   0.139 -0.2912  0.0869  0.2852
    1_EC     O3  957   0.252   1.543   0.162 -0.3630  0.0745 -0.1193
    1_EC     O4  958   0.431   1.634   0.257  0.3995 -0.3812  0.1227
    1_EC     C5  959   0.225   1.548   0.303  0.1230 -0.6127 -0.0007
    1_EC     C6  960   0.363   1.567   0.363  0.2863 -0.9083 -0.2796
    1_EC     O1  961   0.109   3.414   2.275 -0.0570  0.0069 -0.3650
    1_EC     C2  962   0.200   3.363   2.215  0.0299 -0.5522  0.2281
    1_EC     O3  963   0.192   3.236   2.166  0.1192 -0.5459  0.1963
    1_EC     O4  964   0.246   3.433   2.108  0.4627 -0.1742  0.6555
    1_EC     C5  965   0.311   3.214   2.092  0.1458  0.1433  0.0238
    1_EC     C6  966   0.332   3.350   2.028  0.1810  0.1373  0.0219
    1_EC     O1  967   3.308   1.585   0.249  0.0696  0.6502 -0.2428
    1_EC     C2  968   3.416   1.621   0.210  0.3628 -0.3771 -0.4118
    1_EC     O3  969   3.485   1.563   0.108 -0.1197 -0.6611 -0.5777
    1_EC     O4  970   3.507   1.661   0.303 -0.0503  0.0670 -0.1982
    1_EC     C5  971   3.600   1.646   0.091 -0.1566 -0.4533  0.1438
    1_EC     C6  972   3.604   1.725   0.220 -0.1797  0.1992 -0.2487
    1_EC     O1  973   0.507   1.814   1.647  0.2520  0.4042 -0.0538
    1_EC     C2  974   0.410   1.885   1.658 -0.0222 -0.0420  0.4631
    1_EC     O3  975   0.298   1.830   1.712 -0.6471  0.3174 -0.4319
    1_EC     O4  976   0.351   1.957   1.558  0.2764 -0.0517  0.2778
    1_EC     C5  977   0.196   1.930   1.725 -0.6245  0.3145 -0.2257
    1_EC     C6  978   0.241   2.027   1.617 -0.1033 -0.0914 -0.3804
    1_EC     O1  979   3.377   1.566   3.032  0.3316  0.2137 -0.2707
    1_EC     C2  980   3.433   1.527   3.131 -0.1528  0.2547  0.0228
    1_EC     O3  981   3.562   1.483   3.126  0.1697  1.2418 -0.7104
    1_EC     O4  982   3.373   1.457   3.230  0.3409  0.0166  0.1600
    1_EC     C5  983   3.609   1.465   3.260 -0.2163 -0.7343 -0.8038
    1_EC     C6  984   3.475   1.459   3.330  0.2761  0.0290  0.2261
    1_EC     O1  985   0.493   3.779   0.039  0.8931 -0.3653 -0.0523
    1_EC     C2  986   0.535   3.852   0.125  0.5251 -0.2747  0.0539
    1_EC     O3  987   0.513   3.826   0.256  0.0320  0.3503  0.1031
    1_EC     O4  988   0.528   3.988   0.119 -0.3346 -0.3108  0.1962
    1_EC     C5  989   0.604   3.913   0.325 -0.0065  0.6110 -0.1741
    1_EC     C6  990   0.608   4.031   0.230  0.4489  0.2719 -0.5814
    1_EC     O1  991   3.418   3.702   1.940  0.2813 -0.0220  0.1928
    1_EC     C2  992   3.327   3.732   2.012  0.0604 -0.2520  0.0110
    1_EC     O3  993   3.258   3.643   2.087 -0.1863  0.1453  0.2545
    1_EC     O4  994   3.340   3.839   2.094  0.2680 -0.3770  0.1423
    1_EC     C5  995   3.177   3.716   2.180 -0.9092  0.2751 -0.4689
    1_EC     C6  996   3.219   3.861   2.168 -0.0669  0.0282 -0.5152
    1_EC     O1  997   3.554   1.723   1.122  0.5334  0.2140  0.1543
    1_EC     C2  998   3.487   1.818   1.093  0.0404 -0.1567  0.0720
    1_EC     O3  999   3.530   1.921   1.017  0.1392 -0.0770  0.2354
    1_EC     O4 1000   3.358   1.807   1.051  0.1486  0.5639 -0.4697
    1_EC     C5 1001   3.429   2.022   1.027  0.0688 -0.1262  0.0362
    1_EC     C6 1002   3.303   1.939   1.045 -0.3315  0.3672 -0.4621
    1_EC     O1 1003   0.196   3.901   2.982  0.4174 -0.1200 -0.1811
    1_EC     C2 1004   0.268   3.941   2.895  0.2088  0.1067 -0.2508
    1_EC     O3 1005   0.386   4.007   2.913  0.1111  0.2301 -0.0527
    1_EC     O4 1006   0.216   4.018   2.796  0.1760  0.0892 -0.2471
    1_EC     C5 1007   0.437   4.038   2.783 -0.1457  0.0780 -0.1910
    1_EC     C6 1008   0.314   4.033   2.693  0.0339 -0.1771 -0.4244
    1_EC     O1 1009   3.055   0.875   0.240 -0.2509  0.4408  0.1003
    1_EC     C2 1010   2.974   0.891   0.326 -0.3278  0.5109  0.0161
    1_EC     O3 1011   3.018   0.913   0.453  0.2700  0.0267 -0.1036
    1_EC     O4 1012   2.855   0.954   0.308 -0.4463  0.2123 -0.2587
    1_EC     C5 1013   2.915   0.983   0.524  0.0326 -0.5595  0.1425
    1_EC     C6 1014   2.793   0.959   0.437  0.0911 -0.4531  0.0309
    1_EC     O1 1015   0.386   0.110   3.515 -0.2413  0.1397  0.2291
    1_EC     C2 1016   0.413   0.167   3.413 -0.0302 -0.0038  0.2037
    1_EC     O3 1017   0.542   0.189   3.376 -0.0150  0.2333  0.3942
    1_EC     O4 1018   0.349   0.166   3.293  0.5691 -0.1691 -0.1179
    1_EC     C5 1019   0.546   0.286   3.271  0.2376 -0.1459  0.0486
    1_EC     C6 1020   0.402   0.280   3.223  0.2184  0.1123  0.0695
    1_EC     O1 1021   3.397   3.655   2.972 -0.0289 -0.1461  0.0904
    1_EC     C2 1022   3.440   3.550   3.012  0.2501 -0.0214  0.1233
    1_EC     O3 1023   3.441   3.449   2.921  0.3810  0.0729  0.0207
    1_EC     O4 1024   3.402   3.489   3.128  0.1026 -0.2266 -0.0308
    1_EC     C5 1025   3.491   3.334   2.990 -0.1687 -0.2595 -0.1287
    1_EC     C6 1026   3.470   3.364   3.138  0.1053 -0.2301 -0.0963
    1_EC     O1 1027   2.381   2.553   0.630  0.6459 -0.1830  0.3553
    1_EC     C2 1028   2.429   2.444   0.644 -0.1230 -0.6347 -0.4887
    1_EC     O3 1029   2.497   2.402   0.754 -0.3214 -0.4889 -0.3122
    1_EC     O4 1030   2.488   2.372   0.545  0.4477 -0.1763 -0.4905
    1_EC     C5 1031   2.478   2.261   0.743  0.0042 -0.5815  0.2792
    1_EC     C6 1032   2.473   2.238   0.593 -0.4238  0.1567  0.1758
    1_EC     O1 1033   1.546   1.971   0.684 -0.4933  0.1854 -0.1663
    1_EC     C2 1034   1.523   1.854   0.673 -0.1349  0.1192 -0.2311
    1_EC     O3 1035   1.475   1.791   0.563 -0.1292  0.2031 -0.2813
    1_EC     O4 1036   1.455   1.788   0.772 -0.1404  0.0938 -0.2517
    1_EC     C5 1037   1.503   1.654   0.591 -0.7682  0.0990 -0.1321
    1_EC     C6 1038   1.494   1.654   0.742 -0.2307  0.0339 -0.0975
    1_EC     O1 1039   0.575   3.438   2.933 -0.0215  0.0030  0.2626
    1_EC     C2 1040   0.681   3.405   2.980  0.0110 -0.2321  0.0257
    1_EC     O3 1041   0.763   3.508   3.013  0.1080 -0.2091 -0.2798
    1_EC     O4 1042   0.760   3.325   2.904  0.0398 -0.2886  0.1156
    1_EC     C5 1043   0.890   3.454   3.052 -0.0819 -0.0781  0.5485
    1_EC     C6 1044   0.877   3.318   2.985 -0.0651  0.0445  0.2953
    1_EC     O1 1045   1.389   3.162   1.377  0.3418 -0.1926  0.1307
    1_EC     C2 1046   1.430   3.274   1.381  0.2514 -0.1448 -0.2078
    1_EC     O3 1047   1.485   3.342   1.277  0.7880  0.1322  0.2523
    1_EC     O4 1048   1.493   3.329   1.489  0.2154  0.1483 -0.3364
    1_EC     C5 1049   1.463   3.476   1.322 -0.0771 -0.1271  0.6192
    1_EC     C6 1050   1.508   3.470   1.467 -0.4899  0.4059  0.7739
    1_EC     O1 1051   1.096   1.044   3.271 -0.0745 -0.3886  0.1648
    1_EC     C2 1052   1.187   1.096   3.330 -0.0450 -0.3279  0.0646
    1_EC     O3 1053   1.167   1.172   3.441 -0.1768  0.1158 -0.2565
    1_EC     O4 1054   1.300   1.025   3.356  0.2753  0.0777 -0.1958
    1_EC     C5 1055   1.294   1.236   3.450 -0.1751 -0.0032  0.6961
    1_EC     C6 1056   1.388   1.131   3.394 -0.1628  0.3810 -0.0115
    1_EC     O1 1057   1.870   2.111   1.700 -0.3177 -0.2786 -0.0108
    1_EC     C2 1058   1.952   2.106   1.613 -0.3210  0.1225 -0.0391
    1_EC     O3 1059   2.032   2.211   1.579 -0.4968  0.2697  0.0008
    1_EC     O4 1060   1.923   2.065   1.486  0.5174  0.2905 -0.2963
    1_EC     C5 1061   2.130   2.157   1.490 -0.1151  0.0216  0.5652
    1_EC     C6 1062   2.043   2.062   1.409  0.7595 -0.3944  0.0961
    1_EC     O1 1063   2.140   1.249   0.491 -0.0578  0.5800 -0.4352
    1_EC     C2 1064   2.254   1.223   0.467 -0.0851  0.0313  0.0282
    1_EC     O3 1065   2.314   1.107   0.505 -0.0657 -0.0538 -0.2561
    1_EC     O4 1066   2.350   1.315   0.492  0.2258 -0.3463  0.2383
    1_EC     C5 1067   2.441   1.108   0.440  0.0895 -0.2156  0.0408
    1_EC     C6 1068   2.460   1.258   0.420  0.1572 -0.2247  0.0360
    1_EC     O1 1069   3.025   1.278   0.121  0.1706  0.2982 -0.4208
    1_EC     C2 1070   3.007   1.181   0.052  0.0856 -0.4958  0.6920
    1_EC     O3 1071   2.880   1.146   0.020  0.3435  0.0229 -0.9756
    1_EC     O4 1072   3.069   1.153  -0.065 -0.2153  0.0427  0.3994
    1_EC     C5 1073   2.887   1.020  -0.049 -0.1433 -0.5010 -0.0839
    1_EC     C6 1074   3.031   1.018  -0.096 -0.1929  0.1867 -0.2736
    1_EC     O1 1075   1.704   1.373   3.548 -0.2990  0.0871  0.1283
    1_EC     C2 1076   1.703   1.405   3.432  0.3544  0.2756  0.1709
    1_EC     O3 1077   1.592   1.387   3.355  0.2992  0.2764  0.2489
    1_EC     O4 1078   1.803   1.376   3.344 -0.0367  0.3073 -0.2888
    1_EC     C5 1079   1.622   1.462   3.237 -0.5844  0.3206  0.0472
    1_EC     C6 1080   1.774   1.453   3.228 -0.5890  0.3874 -0.1017
    1_EC     O1 1081   1.062   3.924   2.584  0.1904 -0.1954  0.0702
    1_EC     C2 1082   1.096   4.034   2.618 -0.6005  0.0514  0.0798
    1_EC     O3 1083   1.098   4.125   2.517 -0.3749 -0.0516 -0.0095
    1_EC     O4 1084   1.042   4.097   2.725 -0.4028  0.2435  0.0674
    1_EC     C5 1085   1.139   4.245   2.584 -0.3935  0.0037 -0.0959
    1_EC     C6 1086   1.095   4.230   2.728 -0.1730  0.1540 -0.0124
    1_EC     O1 1087   3.418   3.687   1.548 -0.5599 -0.2068 -0.0759
    1_EC     C2 1088   3.420   3.576   1.592  0.3476 -0.3438 -0.4327
    1_EC     O3 1089   3.306   3.505   1.615  0.1650  0.2115  0.3906
    1_EC     O4 1090   3.524   3.488   1.590  0.5562 -0.1185  0.3277
    1_EC     C5 1091   3.344   3.384   1.680 -0.1629 -0.1922 -0.1694
    1_EC     C6 1092   3.481   3.356   1.622 -0.2749 -0.0600 -0.5009
    1_EC     O1 1093   3.932   2.064   0.843 -0.2951  0.0467 -0.0911
    1_EC     C2 1094   3.933   1.952   0.887 -0.0228  0.0495 -0.0900
    1_EC     O3 1095   3.845   1.924   0.987 -0.2567 -0.0904 -0.3352
    1_EC     O4 1096   3.922   1.846   0.803 -0.6718 -0.1898  0.2932
    1_EC     C5 1097   3.872   1.787   1.018  0.1573  0.1158  0.2301
    1_EC     C6 1098   3.935   1.733   0.890 -0.2393 -0.2290  0.1786
    1_EC     O1 1099   0.780   2.785   3.275  0.3650  0.1725 -0.9121
    1_EC     C2 1100   0.701   2.853   3.215 -0.2604  0.3124  0.0413
    1_EC     O3 1101   0.611   2.805   3.125  0.3728  0.0599 -0.4649
    1_EC     O4 1102   0.734   2.978   3.173 -0.2590  0.3011  0.0085
    1_EC     C5 1103   0.527   2.917   3.097  0.1681  0.0528  0.1168
    1_EC     C6 1104   0.609   3.039   3.136 -0.2384  0.3578  0.0330
    1_EC     O1 1105   0.000   1.647   2.060 -0.0420  0.3852 -0.4578
    1_EC     C2 1106   0.063   1.614   2.158  0.0137  0.3697 -0.4987
    1_EC     O3 1107   0.041   1.665   2.282  0.1572 -0.3421 -0.1792
    1_EC     O4 1108   0.198   1.615   2.149  0.0597 -0.2597  0.1509
    1_EC     C5 1109   0.129   1.592   2.368  0.4560  0.4012  0.1565
    1_EC     C6 1110   0.237   1.549   2.270  0.1784 -0.2405  0.1231
    1_EC     O1 1111   1.992   3.270   3.189  0.1748  0.2441  0.1736
    1_EC     C2 1112   1.924   3.205   3.114  0.1784  0.2042  0.2051
    1_EC     O3 1113   1.836   3.111   3.160 -0.2675  0.4534 -0.1286
    1_EC     O4 1114   1.971   3.160   2.995 -0.0458  0.3071  0.0789
    1_EC     C5 1115   1.761   3.072   3.045  0.0846 -0.0838 -0.1796
    1_EC     C6 1116   1.853   3.110   2.930 -0.0296  0.4810 -0.0855
    1_EC     O1 1117   1.070   1.281   0.925  0.4688  0.2713  0.2500
    1_EC     C2 1118   1.045   1.178   0.982 -0.2853  0.3617  0.0864
    1_EC     O3 1119   1.066   1.164   1.116 -0.3858  0.0260  0.0676
    1_EC     O4 1120   1.061   1.054   0.930  0.0240  0.3278  0.2606
    1_EC     C5 1121   1.024   1.034   1.156 -0.0197  0.0025  0.3769
    1_EC     C6 1122   0.999   0.965   1.023 -0.3261  0.4864  0.1810
    1_EC     O1 1123   2.931   1.033   2.537 -0.4253  0.3570  0.5307
    1_EC     C2 1124   2.836   0.976   2.490 -0.1822  0.2275  0.1911
    1_EC     O3 1125   2.707   1.020   2.481 -0.6291 -1.0120  0.4143
    1_EC     O4 1126   2.847   0.858   2.424 -0.0606  0.0940  0.4507
    1_EC     C5 1127   2.632   0.925   2.404 -0.0238 -0.3404 -1.0506
    1_EC     C6 1128   2.717   0.800   2.416  0.0584 -0.1643  0.3706
    1_EC     O1 1129   1.018   2.004   3.664  0.4384 -0.0488 -0.3515
    1_EC     C2 1130   1.062   1.938   3.754 -0.1724 -0.4238 -0.3252
    1_EC     O3 1131   0.999   1.827   3.802 -0.3821 -0.1307  0.0805
    1_EC     O4 1132   1.194   1.913   3.777 -0.1634 -0.6221 -0.5976
    1_EC     C5 1133   1.069   1.795   3.923 -0.0773  0.9737  0.2099
    1_EC     C6 1134   1.208   1.853   3.906  0.1689  0.2702 -0.2184
    1_EC     O1 1135   1.797   1.338   1.652 -0.1749  0.1544 -0.2848
    1_EC     C2 1136   1.911   1.341   1.614 -0.0655  0.1032  0.0353
    1_EC     O3 1137   1.946   1.324   1.483 -0.2046 -0.2198  0.0384
    1_EC     O4 1138   2.025   1.341   1.689  0.0105 -0.0330 -0.0791
    1_EC     C5 1139   2.089   1.318   1.472 -0.1958 -0.0059  0.0255
    1_EC     C6 1140   2.130   1.384   1.602  0.1740 -0.2305  0.0224
    1_EC     O1 1141   3.644   3.115   3.708 -0.2509 -0.2686  0.4126
    1_EC     C2 1142   3.557   3.180   3.656  0.2207  0.0648  0.0312
    1_EC     O3 1143   3.543   3.194   3.522 -0.7104 -0.1824  0.0991
    1_EC     O4 1144   3.482   3.275   3.716 -0.1247 -0.1066 -0.1281
    1_EC     C5 1145   3.419   3.261   3.497 -0.6131  0.0325  0.1895
    1_EC     C6 1146   3.429   3.359   3.613  0.1543  0.2046 -0.0194
    1_EC     O1 1147   3.213   2.259   0.024 -0.2642  0.0097  0.5845
    1_EC     C2 1148   3.284   2.356   0.028  0.0919 -0.2152 -0.2618
    1_EC     O3 1149   3.283   2.462   0.113  0.0648 -0.2261 -0.2481
    1_EC     O4 1150   3.332   2.412  -0.087  0.1272 -0.1054 -0.1929
    1_EC     C5 1151   3.409   2.527   0.095 -0.1447  0.1535 -0.3516
    1_EC     C6 1152   3.454   2.470  -0.039  0.1715 -0.3128 -0.0520
    1_EC     O1 1153   2.629   0.408   2.936  0.5345  0.3841 -0.7528
    1_EC     C2 1154   2.609   0.291   2.918 -0.5035  0.4160  0.1111
    1_EC     O3 1155   2.684   0.194   2.978 -0.3135  0.3914 -0.1639
    1_EC     O4 1156   2.488   0.237   2.891 -0.5699  0.6050  0.0322
    1_EC     C5 1157   2.621   0.066   2.965  0.0495  0.2158 -0.2020
    1_EC     C6 1158   2.505   0.097   2.871  0.1989  0.7330 -0.2193
    1_EC     O1 1159   3.814   2.604   3.813 -0.3177  0.6128  0.2345
    1_EC     C2 1160   3.867   2.609   3.920  0.1652  0.0828  0.0221
    1_EC     O3 1161   3.962   2.518   3.954  0.0613 -0.1276 -0.2511
    1_EC     O4 1162   3.791   2.629   4.031 -0.3001  0.1661 -0.3108
    1_EC     C5 1163   4.013   2.569   4.078  0.3279 -0.1006 -0.3716
    1_EC     C6 1164   3.893   2.645   4.130  0.0745 -0.3335 -0.6102
    1_EC     O1 1165   1.674   0.834   0.212 -0.1137  0.1638 -0.1000
    1_EC     C2 1166   1.581   0.909   0.222 -0.1790  0.0663  0.0239
    1_EC     O3 1167   1.598   1.043   0.234 -0.2629  0.0698  0.1052
    1_EC     O4 1168   1.473   0.892   0.141 -0.1312  0.2186 -0.0730
    1_EC     C5 1169   1.466   1.099   0.241 -0.3301 -0.0441 -0.2177
    1_EC     C6 1170   1.387   1.007   0.150 -0.3307  0.0925 -0.3558
    1_EC     O1 1171   1.771   2.076   0.165 -0.2910 -0.1373 -0.2644
    1_EC     C2 1172   1.850   2.136   0.096 -0.5164  0.2661 -0.1737
    1_EC     O3 1173   1.908   2.077  -0.012 -0.1854 -0.1406  0.2243
    1_EC     O4 1174   1.928   2.238   0.139 -0.0204 -0.0367 -0.3484
    1_EC     C5 1175   1.959   2.188  -0.086 -0.1375 -0.2195  0.1388
    1_EC     C6 1176   1.993   2.289   0.022 -0.0593  0.1982 -0.2698
    1_EC     O1 1177   0.502   3.466   3.291  0.3667  0.2617 -0.2238
    1_EC     C2 1178   0.582   3.423   3.370  0.2374  0.2559 -0.0956
    1_EC     O3 1179   0.595   3.454   3.502  0.0305  0.6289 -0.1615
    1_EC     O4 1180   0.648   3.306   3.348  0.2331  0.2079  0.1476
    1_EC     C5 1181   0.718   3.396   3.545 -0.3435 -0.3897 -0.4485
    1_EC     C6 1182   0.703   3.263   3.473  0.2855 -0.6225 -0.1586
    1_EC     O1 1183   2.856   0.191   3.897 -0.2785 -0.2027  0.8674
    1_EC     C2 1184   2.778   0.259   3.837  0.5643  0.7422  0.8292
    1_EC     O3 1185   2.818   0.375   3.778 -0.1482  0.5611 -0.0360
    1_EC     O4 1186   2.659   0.294   3.893 -0.0083  0.1070  0.0455
    1_EC     C5 1187   2.705   0.412   3.698  0.0031  0.4800 -0.2888
    1_EC     C6 1188   2.593   0.370   3.791  0.2377 -0.0765 -0.2534
    1_EC     O1 1189   1.555   0.645   3.505 -0.3888  0.2126  0.2067
    1_EC     C2 1190   1.569   0.682   3.392 -0.2112 -0.0969  0.1261
    1_EC     O3 1191   1.461   0.729   3.324  0.1241  0.0372 -0.3130
    1_EC     O4 1192   1.684   0.738   3.346  0.0636 -0.5288  0.2818
    1_EC     C5 1193   1.518   0.813   3.222  0.5773 -0.4309 -0.4500
    1_EC     C6 1194   1.667   0.787   3.212  0.6593 -0.2523  0.3045
    1_EC     O1 1195   3.073   1.852   0.399 -0.5592  0.0882 -0.1082
    1_EC     C2 1196   3.026   1.883   0.505 -0.4438 -0.1360  0.0090
    1_EC     O3 1197   2.898   1.846   0.531 -0.3436 -0.3460  0.2137
    1_EC     O4 1198   3.042   2.004   0.564 -0.1873 -0.3200  0.3176
    1_EC     C5 1199   2.863   1.907   0.655 -0.1737  0.2576 -0.0339
    1_EC     C6 1200   2.983   1.993   0.694 -0.0122 -0.1690  0.4111
    1_EC     O1 1201   2.992   0.167   2.143 -0.1561 -0.2974  0.1498
    1_EC     C2 1202   2.910   0.113   2.074  0.3143  0.2526 -0.8602
    1_EC     O3 1203   2.790   0.168   2.041 -0.1640 -0.3106 -0.1002
    1_EC     O4 1204   2.919  -0.011   2.019 -0.1747 -0.2341  0.1133
    1_EC     C5 1205   2.731   0.078   1.947 -0.1128 -0.1370 -0.2996
    1_EC     C6 1206   2.784  -0.054   2.001 -0.2716  0.0180  0.2386
    1_EC     O1 1207   2.692   3.525   3.355 -0.2479 -0.1323 -0.0639
    1_EC     C2 1208   2.716   3.559   3.242  0.0894  0.3492  0.1531
    1_EC     O3 1209   2.652   3.664   3.184 -0.4032  0.1352  0.3041
    1_EC     O4 1210   2.719   3.469   3.140 -0.2799  0.2364  0.2414
    1_EC     C5 1211   2.719   3.682   3.059 -0.2543  0.1993  0.3917
    1_EC     C6 1212   2.777   3.544   3.033  0.2314  0.3620  0.5980
    1_EC     O1 1213   1.965   2.898   2.635 -0.2748  0.0144 -0.0645
    1_EC     C2 1214   2.058   2.824   2.617 -0.2425  0.0410 -0.0058
    1_EC     O3 1215   2.054   2.716   2.535 -0.0601 -0.0575  0.1137
    1_EC     O4 1216   2.187   2.867   2.610 -0.2121 -0.0688 -0.1119
    1_EC     C5 1217   2.168   2.635   2.566  0.1043  0.0848 -0.1134
    1_EC     C6 1218   2.256   2.743   2.628 -0.2522 -0.0009  0.5508
    1_EC     O1 1219   0.648   3.441   1.851  0.9377  0.1177 -0.5607
    1_EC     C2 1220   0.679   3.330   1.883  0.1684  0.0068 -0.1820
    1_EC     O3 1221   0.725   3.236   1.797 -0.4204 -0.1405 -0.3403
    1_EC     O4 1222   0.612   3.267   1.983  0.0707 -0.1241 -0.3294
    1_EC     C5 1223   0.773   3.133   1.884  0.1620  0.5036  0.1102
    1_EC     C6 1224   0.695   3.154   2.013 -0.5638 -0.5454 -0.1468
    1_EC     O1 1225   0.521   1.734   3.385 -0.3791 -0.2502  0.3209
    1_EC     C2 1226   0.588   1.720   3.484  0.7869  0.0726 -0.4101
    1_EC     O3 1227   0.599   1.603   3.553 -0.1332 -0.0470 -0.4588
    1_EC     O4 1228   0.629   1.823   3.562 -0.1557 -0.0826  0.2988
    1_EC     C5 1229   0.640   1.637   3.685 -0.1323 -0.2207 -0.4142
    1_EC     C6 1230   0.707   1.773   3.671  0.3172 -0.4181 -0.1948
    1_EC     O1 1231   2.600   0.168   3.517  0.1110 -0.3138 -0.1089
    1_EC     C2 1232   2.566   0.058   3.482 -0.0107 -0.3050 -0.0218
    1_EC     O3 1233   2.589   0.000   3.361 -0.0233  0.4236 -0.3775
    1_EC     O4 1234   2.572  -0.050   3.564  0.2201  0.0479  0.4268
    1_EC     C5 1235   2.507  -0.117   3.353  0.3893  0.0899  0.2337
    1_EC     C6 1236   2.497  -0.154   3.500  0.0614  0.2655  0.2575
    1_EC     O1 1237   2.140   3.401   2.247  0.8575 -0.0110 -0.1599
    1_EC     C2 1238   2.153   3.509   2.199 -0.2470  0.0445 -0.3623
    1_EC     O3 1239   2.180   3.618   2.277 -0.0594 -0.4393  0.2522
    1_EC     O4 1240   2.230   3.535   2.089  0.4643  0.0523  0.1350
    1_EC     C5 1241   2.190   3.731   2.189  0.0306 -0.5743  0.0863
    1_EC     C6 1242   2.215   3.672   2.052  0.2355 -0.0380 -0.1074
    1_EC     O1 1243   1.066   2.470   3.740 -0.2835  0.3130  0.3472
    1_EC     C2 1244   1.010   2.569   3.778 -0.4044  0.3104  0.1751
    1_EC     O3 1245   1.028   2.694   3.727 -0.2148  0.2971  0.2120
    1_EC     O4 1246   0.917   2.566   3.878 -0.3143 -0.1979  0.2491
    1_EC     C5 1247   0.920   2.772   3.778 -0.2392  0.3756  0.0389
    1_EC     C6 1248   0.890   2.703   3.910  0.1570 -0.0238 -0.0792
    1_EC     O1 1249   1.090   3.824   1.438  0.1477  0.2149 -0.2050
    1_EC     C2 1250   1.115   3.852   1.552  0.0031  1.0815 -0.3772
    1_EC     O3 1251   1.215   3.941   1.577  0.1480  0.8196  0.0045
    1_EC     O4 1252   1.019   3.877   1.644  0.1218  0.2301 -0.0107
    1_EC     C5 1253   1.226   3.955   1.718 -0.1601  0.1058  0.1020
    1_EC     C6 1254   1.086   3.916   1.764 -0.2023  0.3096  0.1470
    1_EC     O1 1255   2.581   0.197   0.491 -0.4627 -0.3151 -0.1442
    1_EC     C2 1256   2.666   0.178   0.408 -0.2034  0.2154 -0.0044
    1_EC     O3 1257   2.750   0.279   0.373  0.4411 -0.2715  0.1216
    1_EC     O4 1258   2.630   0.125   0.288 -0.0066 -0.3139  0.1639
    1_EC     C5 1259   2.836   0.226   0.272 -0.0175 -0.0728 -0.3765
    1_EC     C6 1260   2.756   0.107   0.222 -0.1218 -0.1156 -0.1118
    1_EC     O1 1261   2.738   1.824   2.678  0.2934 -0.0361 -0.0210
    1_EC     C2 1262   2.824   1.819   2.595  0.1483 -0.1881 -0.1614
    1_EC     O3 1263   2.819   1.884   2.476  0.1976  0.4434  0.1775
    1_EC     O4 1264   2.927   1.731   2.593  0.0998 -0.2473 -0.0649
    1_EC     C5 1265   2.956   1.914   2.447  0.3126  0.0735  0.3276
    1_EC     C6 1266   3.028   1.816   2.538  0.1368  0.0108  0.3986
    1_EC     O1 1267   1.574   2.849   2.849 -0.3492 -0.0615 -0.3656
    1_EC     C2 1268   1.611   2.794   2.749  0.4308  0.2263 -0.2460
    1_EC     O3 1269   1.723   2.717   2.759  0.0081 -0.3988 -0.2796
    1_EC     O4 1270   1.623   2.853   2.628 -0.0568  0.6585 -0.0896
    1_EC     C5 1271   1.734   2.656   2.630 -0.4617 -0.5863 -0.2351
    1_EC     C6 1272   1.643   2.740   2.542 -0.3279  0.2367  0.4017
    1_EC     O1 1273   2.270   0.753   3.029  0.0808 -0.1446  0.6988
    1_EC     C2 1274   2.212   0.649   3.047 -0.3210  0.0053  0.2663
    1_EC     O3 1275   2.133   0.617   3.153 -0.6205 -0.1573 -0.0039
    1_EC     O4 1276   2.214   0.542   2.963 -0.2635  0.3998 -0.2413
    1_EC     C5 1277   2.061   0.499   3.116 -0.3449 -0.3678  0.1268
    1_EC     C6 1278   2.167   0.428   3.034 -0.4400  0.2697 -0.5639
    1_EC     O1 1279   1.428   3.769   3.370  0.3059 -0.4828  0.1505
    1_EC     C2 1280   1.394   3.866   3.431  0.3838 -0.1571 -0.3149
    1_EC     O3 1281   1.446   3.990   3.413 -0.1095  0.1235  0.1693
    1_EC     O4 1282   1.376   3.867   3.566  0.7506  0.7277 -0.2683
    1_EC     C5 1283   1.348   4.079   3.468 -0.0921 -0.0366  0.4587
    1_EC     C6 1284   1.303   3.990   3.583 -0.2519  0.0474  0.4624
    1_EC     O1 1285   0.695   2.887   0.540 -0.1522 -0.0824  0.1617
    1_EC     C2 1286   0.730   2.780   0.500  0.4679  0.1715  0.0123
    1_EC     O3 1287   0.683   2.664   0.554  0.2975  0.2058 -0.0632
    1_EC     O4 1288   0.865   2.763   0.509  0.5406  0.4711 -0.4533
    1_EC     C5 1289   0.746   2.566   0.471  0.0762 -0.0585  0.0791
    1_EC     C6 1290   0.879   2.636   0.445  0.0346  0.0714  0.2171
    1_EC     O1 1291   2.082   3.034   2.094 -0.6448  0.0943 -0.5309
    1_EC     C2 1292   2.089   3.107   1.999  0.2007  0.4645 -0.1952
    1_EC     O3 1293   2.191   3.194   1.973  0.1408  0.7027  0.3416
    1_EC     O4 1294   2.062   3.067   1.872 -0.4673  0.2175  0.0226
    1_EC     C5 1295   2.143   3.275   1.866 -0.0767  0.3375  0.1593
    1_EC     C6 1296   2.047   3.183   1.791  0.3046  0.1960 -0.1566
    1_EC     O1 1297   1.695   3.455   0.266  0.3474 -0.2328  0.2357
    1_EC     C2 1298   1.696   3.489   0.381 -0.2057  0.4277  0.0517
    1_EC     O3 1299   1.586   3.485   0.460 -0.0901 -0.0224  0.1923
    1_EC     O4 1300   1.795   3.449   0.465 -0.5090  0.0110  0.2166
    1_EC     C5 1301   1.625   3.550   0.582  0.4188  0.7412 -0.3715
    1_EC     C6 1302   1.773   3.515   0.589  0.1521 -0.2706  0.4914
    1_EC     O1 1303   2.476   0.223   2.139  0.2641  0.0615  0.2095
    1_EC     C2 1304   2.569   0.283   2.184  0.2042  0.2537  0.0799
    1_EC     O3 1305   2.644   0.237   2.288 -0.0429 -0.1030  0.1017
    1_EC     O4 1306   2.558   0.418   2.197 -0.2127  0.1906  0.4166
    1_EC     C5 1307   2.745   0.337   2.302  0.1509 -0.2151 -0.4579
    1_EC     C6 1308   2.691   0.459   2.229 -0.1645  0.1126  0.3179
    1_EC     O1 1309   1.673   1.766   2.027  0.1950  0.4444  0.4588
    1_EC     C2 1310   1.642   1.650   2.032  0.4440  0.3719  0.3073
    1_EC     O3 1311   1.713   1.556   1.964  0.2778  0.3337  0.1871
    1_EC     O4 1312   1.518   1.601   2.057  0.3325  0.4313 -0.1264
    1_EC     C5 1313   1.643   1.432   1.973  0.1303  0.4099  0.1035
    1_EC     C6 1314   1.529   1.459   2.069  0.4171  0.4828  0.4260
    1_EC     O1 1315   2.165   2.205   0.706  0.0141 -0.1589  0.3827
    1_EC     C2 1316   2.063   2.219   0.767 -0.1527  0.0541  0.0579
    1_EC     O3 1317   2.032   2.125   0.861 -0.1289  0.0027  0.0138
    1_EC     O4 1318   1.961   2.307   0.745 -0.1464  0.0185 -0.1080
    1_EC     C5 1319   1.891   2.135   0.882 -0.1758 -0.3384 -0.1357
    1_EC     C6 1320   1.866   2.281   0.849 -0.2396 -0.3836 -0.2881
    1_EC     O1 1321   2.911   1.506   2.744  0.3979 -0.3941 -0.3283
    1_EC     C2 1322   2.857   1.403   2.774  0.4704 -0.1963  0.5194
    1_EC     O3 1323   2.894   1.287   2.713 -0.0959  0.1375 -0.4911
    1_EC     O4 1324   2.724   1.388   2.798  0.4065 -0.0929  0.2380
    1_EC     C5 1325   2.817   1.181   2.771  0.3763  0.0370 -0.0411
    1_EC     C6 1326   2.701   1.253   2.838  0.3742 -0.1203  0.1251
    1_EC     O1 1327   0.241   0.667   1.337  0.3975 -0.0285 -0.3033
    1_EC     C2 1328   0.221   0.618   1.445 -0.4531  0.0841 -0.3974
    1_EC     O3 1329   0.091   0.602   1.482 -0.2701 -0.1108  0.1691
    1_EC     O4 1330   0.284   0.502   1.478  0.3355  0.5918 -0.0761
    1_EC     C5 1331   0.092   0.527   1.604 -0.2882  0.0133  0.2445
    1_EC     C6 1332   0.238   0.485   1.612 -0.1190  0.4848 -0.2427
    1_EC     O1 1333   0.447   3.029   2.766 -0.1842 -0.1914 -0.3531
    1_EC     C2 1334   0.328   3.039   2.760 -0.2101 -0.2592  0.0339
    1_EC     O3 1335   0.251   3.059   2.871 -0.1909 -0.2995  0.0543
    1_EC     O4 1336   0.248   2.976   2.670  0.1401  0.0710 -0.5174
    1_EC     C5 1337   0.121   3.092   2.820  0.0050  0.5704  0.1049
    1_EC     C6 1338   0.123   3.046   2.675 -0.2772 -0.7159  0.5002
    1_EC     O1 1339   3.286   0.483   3.814  0.1832  0.0390  0.3440
    1_EC     C2 1340   3.238   0.554   3.730  0.2778 -0.3691 -0.0601
    1_EC     O3 1341   3.241   0.524   3.598 -0.2153 -0.2222 -0.1062
    1_EC     O4 1342   3.256   0.689   3.731 -0.4446 -0.2718  0.4298
    1_EC     C5 1343   3.163   0.622   3.528 -0.3964 -0.1280  0.2264
    1_EC     C6 1344   3.163   0.733   3.631  0.0501  0.0037  0.0862
    1_EC     O1 1345   0.554   2.229   0.517  0.1099 -0.4338 -0.4799
    1_EC     C2 1346   0.658   2.171   0.501  0.4671  0.0599  0.0084
    1_EC     O3 1347   0.777   2.235   0.483  0.2209  0.5266  0.0282
    1_EC     O4 1348   0.681   2.043   0.542 -0.0085 -0.0590 -0.0967
    1_EC     C5 1349   0.882   2.138   0.480 -0.1487  0.0973  0.7243
    1_EC     C6 1350   0.807   2.005   0.486 -0.0631 -0.0041 -0.2582
    1_EC     O1 1351   1.116   3.720   3.807 -0.1932  0.3392  0.5684
    1_EC     C2 1352   1.047   3.812   3.842  0.1738  0.5697  0.6835
    1_EC     O3 1353   0.927   3.804   3.904 -0.3859  0.0009 -0.4493
    1_EC     O4 1354   1.052   3.937   3.787 -0.1810  0.1849 -0.2371
    1_EC     C5 1355   0.911   3.928   3.974  0.0988 -0.3672  0.3238
    1_EC     C6 1356   0.983   4.022   3.879 -0.0163 -0.2787  0.3236
    1_EC     O1 1357   3.185   0.344   1.451  0.7448  0.1250 -0.3273
    1_EC     C2 1358   3.249   0.255   1.402  0.6631 -0.1631  0.0829
    1_EC     O3 1359   3.344   0.279   1.308  0.1113 -0.1329 -0.4791
    1_EC     O4 1360   3.178   0.150   1.352 -0.0038  0.0624  0.5354
    1_EC     C5 1361   3.400   0.149   1.287  0.6215 -0.0969  0.5663
    1_EC     C6 1362   3.282   0.059   1.315 -0.0353  0.4138 -0.4736
    1_EC     O1 1363   2.071   0.973   2.193  0.4467  0.4079  0.3931
    1_EC     C2 1364   2.024   1.059   2.123  0.0690 -0.2542 -0.1754
    1_EC     O3 1365   1.992   1.186   2.159  0.2702 -0.1887 -0.2298
    1_EC     O4 1366   1.946   1.029   2.016  0.0695 -0.2313 -0.1822
    1_EC     C5 1367   1.973   1.256   2.035 -0.0475  0.1682  0.0179
    1_EC     C6 1368   1.934   1.147   1.936 -0.1633  0.0209  0.2224
    1_EC     O1 1369   0.346   2.237   2.916  0.1818  0.1296  0.4219
    1_EC     C2 1370   0.336   2.179   3.021 -0.2285  0.3375  0.5009
    1_EC     O3 1371   0.315   2.045   3.028  0.5707  0.1791  0.0276
    1_EC     O4 1372   0.426   2.198   3.121  0.4788 -0.4899  0.0405
    1_EC     C5 1373   0.280   2.019   3.164 -0.4703  0.3550 -0.2002
    1_EC     C6 1374   0.363   2.129   3.229  0.1327 -0.2216  0.0126
    1_EC     O1 1375   1.276   0.715   0.879  0.1608 -0.2088 -0.1760
    1_EC     C2 1376   1.368   0.658   0.929 -0.1683 -0.2878  0.3419
    1_EC     O3 1377   1.438   0.564   0.859  0.3193  0.3039  0.0254
    1_EC     O4 1378   1.461   0.711   1.014 -0.2908  0.2447  0.1458
    1_EC     C5 1379   1.530   0.502   0.948 -0.0859 -0.1735  0.1161
    1_EC     C6 1380   1.532   0.598   1.066 -0.1198  0.1987 -0.1875
    1_EC     O1 1381   1.286   2.999   3.487 -0.4407  0.2907  0.2106
    1_EC     C2 1382   1.311   2.912   3.566 -0.3536  0.6316  0.5631
    1_EC     O3 1383   1.255   2.788   3.566  0.3479  0.3119  0.1209
    1_EC     O4 1384   1.386   2.923   3.679  0.0540  0.4536  0.3138
    1_EC     C5 1385   1.316   2.700   3.661 -0.1003 -0.1351  0.0033
    1_EC     C6 1386   1.356   2.809   3.760  0.5770 -0.1148 -0.2833
    1_EC     O1 1387   2.969   2.605   2.685 -0.3446 -0.2630  0.5508
    1_EC     C2 1388   3.069   2.552   2.722 -0.0281  0.1119  0.2488
    1_EC     O3 1389   3.081   2.420   2.753  0.0442  0.0305 -0.1176
    1_EC     O4 1390   3.171   2.622   2.780 -0.1298  0.2543  0.2546
    1_EC     C5 1391   3.215   2.400   2.798 -0.2036 -0.2638  0.5081
    1_EC     C6 1392   3.234   2.532   2.871  0.5005  0.1052 -0.3251
    1_EC     O1 1393   1.993   1.521   3.796 -0.4695  0.1435 -0.0148
    1_EC     C2 1394   1.918   1.613   3.815 -0.3691  0.2252 -0.0159
    1_EC     O3 1395   1.783   1.596   3.810 -0.2857 -0.4242 -0.1871
    1_EC     O4 1396   1.941   1.732   3.878  0.0449  0.2687 -0.2436
    1_EC     C5 1397   1.730   1.723   3.771  0.2530 -0.1994 -0.2029
    1_EC     C6 1398   1.837   1.816   3.827 -0.1667  0.1590  0.0090
    1_EC     O1 1399   1.761   3.834   3.492  0.0780  0.3793 -0.3093
    1_EC     C2 1400   1.759   3.753   3.404  0.0006 -0.3204  0.3303
    1_EC     O3 1401   1.697   3.634   3.423 -0.2721 -0.2724 -0.2241
    1_EC     O4 1402   1.725   3.784   3.276  0.2106 -0.2451  0.2921
    1_EC     C5 1403   1.732   3.557   3.308  0.0821  0.0446 -0.3315
    1_EC     C6 1404   1.759   3.665   3.204  0.2782  0.0861 -0.2370
    1_EC     O1 1405   1.036   0.184   3.533 -0.0628  0.1459 -0.4361
    1_EC     C2 1406   0.936   0.233   3.579  0.0204 -0.0121 -0.0775
    1_EC     O3 1407   0.884   0.217   3.703  0.0548  0.0797 -0.0507
    1_EC     O4 1408   0.899   0.355   3.531 -0.3264 -0.1270 -0.1056
    1_EC     C5 1409   0.770   0.303   3.714  0.0527  0.1048 -0.2595
    1_EC     C6 1410   0.767   0.377   3.582 -0.2642  0.3200 -0.1337
    1_EC     O1 1411   2.237   3.901   1.387  0.0954 -0.0361 -0.6608
    1_EC     C2 1412   2.189   3.988   1.321 -0.6176  0.1029  0.0267
    1_EC     O3 1413   2.255   4.043   1.216  0.0303 -0.4369  0.1515
    1_EC     O4 1414   2.119   4.091   1.376 -0.1861  0.3497  0.1186
    1_EC     C5 1415   2.149   4.111   1.149  0.5184  0.4447  0.2586
    1_EC     C6 1416   2.058   4.154   1.263 -0.5269 -0.5304 -0.1927
    1_EC     O1 1417   2.276   0.602   3.813  0.3969 -0.1755 -0.7647
    1_EC     C2 1418   2.359   0.679   3.773  0.3216  0.1015 -0.3976
    1_EC     O3 1419   2.325   0.810   3.787  0.0718  0.0426 -0.4546
    1_EC     O4 1420   2.486   0.680   3.821  0.2349  0.3562 -0.1703
    1_EC     C5 1421   2.438   0.885   3.742  0.1271  0.4276  0.3208
    1_EC     C6 1422   2.552   0.785   3.748  0.3614  0.6986  0.4333
    1_EC     O1 1423   3.962   1.437   3.242  0.2998 -0.6402 -0.4868
    1_EC     C2 1424   4.037   1.408   3.331  0.0033  0.4398  0.1378
    1_EC     O3 1425   4.142   1.486   3.366  0.7452 -0.2656 -0.4672
    1_EC     O4 1426   4.081   1.279   3.338  0.0872  0.4504 -0.1645
    1_EC     C5 1427   4.199   1.420   3.480  0.3070  0.0923 -0.0390
    1_EC     C6 1428   4.159   1.275   3.458  0.0237  0.1826 -0.1312
    1_EC     O1 1429   3.031   0.563   2.465 -0.2581  0.1116  0.1583
    1_EC     C2 1430   3.008   0.521   2.576  0.0643 -0.3037  0.0709
    1_EC     O3 1431   2.882   0.481   2.607  0.0045  0.0405  0.2669
    1_EC     O4 1432   3.098   0.435   2.630  0.1926 -0.0130  0.3175
    1_EC     C5 1433   2.897   0.448   2.745  0.5458  0.4162  0.2989
    1_EC     C6 1434   3.047   0.427   2.763  0.4623 -0.0957  0.4180
    1_EC     O1 1435   2.149   3.750   3.615  0.5088  0.3133  0.4890
    1_EC     C2 1436   2.074   3.668   3.660  0.0993  0.2639 -0.2723
    1_EC     O3 1437   2.076   3.541   3.611  0.1243  0.1500  0.0195
    1_EC     O4 1438   2.039   3.655   3.791 -0.0282  0.2738 -0.3050
    1_EC     C5 1439   1.958   3.482   3.665  0.2502  0.0035  0.1339
    1_EC     C6 1440   1.929   3.564   3.790  0.3009 -0.1401  0.2414
    1_EC     O1 1441   0.455   3.689   1.536  0.2095 -0.1545 -0.1107
    1_EC     C2 1442   0.570   3.681   1.571  0.1053 -0.1999  0.2253
    1_EC     O3 1443   0.649   3.790   1.590 -0.0797 -0.1043  0.4475
    1_EC     O4 1444   0.655   3.593   1.512  0.2787  0.1436 -0.0426
    1_EC     C5 1445   0.775   3.741   1.636  0.2175 -0.0801 -0.3339
    1_EC     C6 1446   0.777   3.598   1.586  0.3781 -0.1281 -0.1889
    1_EC     O1 1447   0.094   1.309   0.508  0.5815 -0.0440  0.1889
    1_EC     C2 1448   0.061   1.266   0.615 -0.0775  0.0025  0.0085
    1_EC     O3 1449   0.079   1.137   0.655  0.7085  0.3201  0.7242
    1_EC     O4 1450  -0.036   1.320   0.695 -0.2282 -0.5691  0.2193
    1_EC     C5 1451   0.004   1.116   0.775  0.0496 -0.2912  0.2178
    1_EC     C6 1452  -0.034   1.255   0.822  0.1312 -0.3129  0.3477
    1_EC     O1 1453   1.156   1.695   0.656 -0.5117 -0.3713 -0.3394
    1_EC     C2 1454   1.158   1.810   0.692 -0.3607 -0.4027 -0.2460
    1_EC     O3 1455   1.148   1.917   0.609  0.1027 -0.5512 -0.4997
    1_EC     O4 1456   1.105   1.852   0.810  0.3129  0.0712 -0.1055
    1_EC     C5 1457   1.184   2.034   0.683 -0.6678 -0.1477 -0.7501
    1_EC     C6 1458   1.154   1.986   0.824  0.4850  0.0432 -0.4249
    1_EC     O1 1459   0.569   0.097   2.094 -0.1123 -0.0708  0.8045
    1_EC     C2 1460   0.569   0.204   2.039  0.1618 -0.2625  0.4268
    1_EC     O3 1461   0.473   0.246   1.953  0.2332 -0.0169  0.4676
    1_EC     O4 1462   0.647   0.310   2.073 -0.6788  0.4266  0.2227
    1_EC     C5 1463   0.497   0.385   1.928  0.0537  0.0019  0.4023
    1_EC     C6 1464   0.645   0.396   1.958  0.0769  0.3702  0.1660
    1_EC     O1 1465   0.058   2.895   2.037  0.0360 -0.0155 -0.5394
    1_EC     C2 1466   0.118   2.799   1.999 -0.6973 -0.6125 -0.2258
    1_EC     O3 1467   0.188   2.709   2.073 -0.0577  0.1297  0.0885
    1_EC     O4 1468   0.094   2.738   1.880 -0.2919 -0.1091 -0.5733
    1_EC     C5 1469   0.266   2.627   1.985 -0.1134  0.1142  0.0536
    1_EC     C6 1470   0.213   2.666   1.847 -0.5281 -0.7521 -0.0375
    1_EC     O1 1471   0.270   1.692   0.732  0.2793 -0.5858  0.1274
    1_EC     C2 1472   0.381   1.728   0.760  0.1449 -0.2333  0.2194
    1_EC     O3 1473   0.438   1.842   0.714 -0.2685 -0.4254 -0.7877
    1_EC     O4 1474   0.437   1.704   0.882  0.4232 -0.4847  0.0446
    1_EC     C5 1475   0.576   1.812   0.736 -0.2867  0.2114  0.2280
    1_EC     C6 1476   0.576   1.731   0.865  0.3239  0.1202  0.1726
    1_EC     O1 1477   2.098   2.487   2.850 -0.6655 -0.0121 -0.2981
    1_EC     C2 1478   2.043   2.569   2.919 -0.2174  0.0588 -0.0229
    1_EC     O3 1479   2.052   2.703   2.894  0.6917 -0.0046 -0.0877
    1_EC     O4 1480   1.928   2.556   2.990 -0.8055  0.0485 -0.9554
    1_EC     C5 1481   1.972   2.778   2.986  0.9849 -0.1189  0.2607
    1_EC     C6 1482   1.898   2.673   3.067  0.7590 -0.1516  0.0110
    1_EC     O1 1483   3.795   1.419   3.629 -0.6668  0.2733  0.2603
    1_EC     C2 1484   3.780   1.305   3.662  0.0281  0.0958 -0.0178
    1_EC     O3 1485   3.660   1.241   3.667  0.1153 -0.0297  0.5471
    1_EC     O4 1486   3.885   1.229   3.704  0.0293  0.4019  0.5406
    1_EC     C5 1487   3.689   1.102   3.687  0.3471  0.0596  0.8330
    1_EC     C6 1488   3.836   1.097   3.725  0.5216  0.1611  0.1872
    1_EC     O1 1489   0.688   2.161   0.843 -0.2181 -0.6075  0.6042
    1_EC     C2 1490   0.773   2.243   0.860 -0.1891 -0.4892 -0.0573
    1_EC     O3 1491   0.773   2.371   0.814  0.3336 -0.5492 -0.2385
    1_EC     O4 1492   0.903   2.204   0.853 -0.2088 -0.5114 -0.2786
    1_EC     C5 1493   0.900   2.428   0.845  0.0953  0.2114 -0.6314
    1_EC     C6 1494   0.983   2.313   0.900 -0.5027 -0.1812 -0.5421
    1_EC     O1 1495   3.868   2.238   1.499 -0.2937  0.0570 -0.4670
    1_EC     C2 1496   3.896   2.222   1.384  0.2629  0.2384 -0.3598
    1_EC     O3 1497   3.964   2.114   1.337  0.4288 -0.0064  0.4280
    1_EC     O4 1498   3.818   2.264   1.280 -0.0513  0.6843  0.0514
    1_EC     C5 1499   3.986   2.133   1.197 -0.1243 -0.3687  0.2929
    1_EC     C6 1500   3.896   2.251   1.161  0.2667 -0.0565  0.3396
    1_EC     O1 1501   1.425   2.918   1.749 -0.2551 -0.0490 -0.2294
    1_EC     C2 1502   1.466   2.808   1.773 -0.2311  0.0416  0.1413
    1_EC     O3 1503   1.417   2.693   1.720  0.1275 -0.2000  0.3298
    1_EC     O4 1504   1.490   2.771   1.902  0.0142 -0.2719  0.0073
    1_EC     C5 1505   1.494   2.584   1.772  0.0849 -0.4485 -0.1280
    1_EC     C6 1506   1.553   2.643   1.899 -0.3792 -0.4707  0.1024
    1_EC     O1 1507   0.747   1.791   0.128 -0.5341 -0.3376  0.1891
    1_EC     C2 1508   0.649   1.858   0.109 -0.0335  0.2648 -0.2844
    1_EC     O3 1509   0.606   1.957   0.191 -0.1024 -0.0220  0.0270
    1_EC     O4 1510   0.602   1.897  -0.013 -0.3043  0.2832 -0.1744
    1_EC     C5 1511   0.468   1.977   0.161  0.0462  0.5279 -0.3068
    1_EC     C6 1512   0.465   1.925   0.018 -0.3140  0.2777 -0.2121
    1_EC     O1 1513   2.460   3.693   2.853 -0.2102 -0.1987 -0.1313
    1_EC     C2 1514   2.420   3.679   2.741 -0.5467 -0.3657  0.0066
    1_EC     O3 1515   2.502   3.639   2.640 -0.0377  0.3690  0.1160
    1_EC     O4 1516   2.328   3.758   2.680 -0.0526  0.0747 -0.1706
    1_EC     C5 1517   2.411   3.592   2.541  0.1462  0.3397 -0.0394
    1_EC     C6 1518   2.288   3.676   2.570 -0.1004  0.0033 -0.0992
    1_EC     O1 1519   0.546   3.965   2.423 -0.0870  0.4533 -0.3770
    1_EC     C2 1520   0.452   3.895   2.398  0.2082  0.0512 -0.3720
    1_EC     O3 1521   0.426   3.770   2.445 -0.6641  0.3250 -0.1023
    1_EC     O4 1522   0.331   3.955   2.415  0.1463 -0.1171 -0.2214
    1_EC     C5 1523   0.299   3.734   2.391 -0.4565 -0.0011 -0.3759
    1_EC     C6 1524   0.234   3.867   2.357 -0.2802  0.1884  0.0232
    1_EC     O1 1525   3.631   3.017   1.988 -0.1168  0.3967  0.1855
    1_EC     C2 1526   3.730   3.079   1.962 -0.3417  0.4648 -0.5176
    1_EC     O3 1527   3.788   3.164   2.051 -0.4105 -0.0232 -0.0030
    1_EC     O4 1528   3.734   3.151   1.846  0.2216 -0.0993 -0.8517
    1_EC     C5 1529   3.902   3.225   1.989 -0.3206  0.2572  0.4331
    1_EC     C6 1530   3.870   3.195   1.843  0.2040  0.0568  0.3574
    1_EC     O1 1531   3.071   3.188   2.560  0.6380 -0.5944 -0.1805
    1_EC     C2 1532   3.066   3.074   2.522 -0.3836 -0.4527 -0.4809
    1_EC     O3 1533   3.103   2.968   2.598 -1.2022  0.1922  0.8534
    1_EC     O4 1534   3.027   3.036   2.397 -0.1949  0.0150 -0.6856
    1_EC     C5 1535   3.105   2.855   2.510  0.0962  0.3387  0.6865
    1_EC     C6 1536   3.011   2.894   2.397 -0.0397 -0.0145  0.6787
    1_EC     O1 1537   0.669   0.003   3.056 -0.0611 -0.2840 -0.1165
    1_EC     C2 1538   0.590  -0.072   3.106 -1.1259  0.6549 -0.3602
    1_EC     O3 1539   0.539  -0.059   3.232 -0.2631  0.2767  0.0351
    1_EC     O4 1540   0.503  -0.146   3.033 -0.1595 -0.3982 -0.4567
    1_EC     C5 1541   0.491  -0.192   3.256 -0.1883  0.2097 -0.1812
    1_EC     C6 1542   0.451  -0.247   3.120 -0.6669  0.2131 -0.0439
    1_EC     O1 1543   2.508   1.623   0.345  0.3513  0.0047 -0.1694
    1_EC     C2 1544   2.574   1.716   0.307  0.3665  0.1191  0.1301
    1_EC     O3 1545   2.702   1.700   0.265  0.1490  0.3508 -0.6415
    1_EC     O4 1546   2.547   1.847   0.331  0.0118  0.0871 -0.0829
    1_EC     C5 1547   2.762   1.829   0.250 -0.2157  0.6531  0.4253
    1_EC     C6 1548   2.647   1.927   0.268 -0.4423  0.5173 -0.2599
    1_EC     O1 1549   2.494   3.745   1.851  0.2764 -0.2522 -0.4824
    1_EC     C2 1550   2.520   3.777   1.738 -0.0765 -0.0655 -0.5123
    1_EC     O3 1551   2.447   3.721   1.638 -0.4037  0.1539 -0.3958
    1_EC     O4 1552   2.539   3.907   1.705  0.3169 -0.1345 -0.5572
    1_EC     C5 1553   2.519   3.770   1.525 -0.2725 -0.0449 -0.3988
    1_EC     C6 1554   2.585   3.899   1.570  0.0013 -0.0916 -0.6674
    1_EC     O1 1555   1.562   1.315   0.475  0.6031 -0.7362 -0.5889
    1_EC     C2 1556   1.465   1.294   0.543  1.1969  0.8418  0.8244
    1_EC     O3 1557   1.367   1.382   0.573 -0.0747 -0.2961  0.1242
    1_EC     O4 1558   1.451   1.202   0.643 -0.2987  0.1641  0.0244
    1_EC     C5 1559   1.248   1.306   0.596 -0.2551 -0.1367 -0.2654
    1_EC     C6 1560   1.310   1.178   0.650 -0.2657 -0.1018 -0.1716
    1_EC     O1 1561   2.155   0.129   2.170  0.3553  0.2843  0.2229
    1_EC     C2 1562   2.177   0.141   2.053 -0.0043 -0.1597  0.1054
    1_EC     O3 1563   2.080   0.190   1.971 -0.1749 -0.1106  0.3353
    1_EC     O4 1564   2.223   0.040   1.975  0.0725 -0.3795  0.4319
    1_EC     C5 1565   2.143   0.208   1.844  0.1469 -0.4834  0.4387
    1_EC     C6 1566   2.242   0.093   1.843 -0.0167 -0.6235  0.3212
    1_EC     O1 1567   2.468   0.658   3.464 -0.5107  0.0381  0.3477
    1_EC     C2 1568   2.523   0.579   3.392 -0.1932  0.0083  0.6207
    1_EC     O3 1569   2.467   0.545   3.273  0.6796  0.4062  0.0811
    1_EC     O4 1570   2.655   0.576   3.360 -0.4383 -0.3304 -0.4052
    1_EC     C5 1571   2.531   0.419   3.249 -0.3847  0.0240 -0.8695
    1_EC     C6 1572   2.670   0.444   3.306 -0.4842 -0.3039 -0.4820
    1_EC     O1 1573   1.731   2.408   2.264  0.2091  0.2477  0.4579
    1_EC     C2 1574   1.680   2.328   2.337 -0.2085  0.0257 -0.0711
    1_EC     O3 1575   1.711   2.196   2.319  0.4180  0.1654 -0.0428
    1_EC     O4 1576   1.641   2.355   2.464  0.2389  0.2256  0.0277
    1_EC     C5 1577   1.660   2.119   2.428  0.6491  0.2140  0.0994
    1_EC     C6 1578   1.585   2.229   2.502  0.2764  0.1465 -0.1761
    1_EC     O1 1579   3.851   3.806   3.098  0.4187 -0.4860  0.1334
    1_EC     C2 1580   3.918   3.879   3.166  0.1709 -0.5198  0.4198
    1_EC     O3 1581   3.897   4.012   3.146  0.1981 -0.5382  0.2643
    1_EC     O4 1582   3.934   3.881   3.301 -0.1213 -0.0090  0.4511
    1_EC     C5 1583   4.013   4.070   3.205 -0.3522  0.6225  0.2359
    1_EC     C6 1584   4.040   3.975   3.320 -0.4322  0.4190  0.0868
    1_EC     O1 1585   3.850   1.035   1.197  0.0521 -0.1507  0.0928
    1_EC     C2 1586   3.889   1.131   1.257 -0.1471  0.2333 -0.3832
    1_EC     O3 1587   3.801   1.220   1.310 -0.1555  0.0978 -0.1687
    1_EC     O4 1588   3.991   1.212   1.219  0.2946  0.0703  0.4327
    1_EC     C5 1589   3.876   1.309   1.394 -0.2839  0.0188  0.0300
    1_EC     C6 1590   4.013   1.302   1.328 -0.0380  0.0240  0.5364
    1_EC     O1 1591   3.060   0.835   3.039  0.0329 -0.3679 -0.1832
    1_EC     C2 1592   3.101   0.880   2.935  0.0843  0.1588  0.0602
    1_EC     O3 1593   3.076   0.823   2.814  0.3966 -0.4258  0.2675
    1_EC     O4 1594   3.075   1.010   2.905 -0.4765  0.0425  0.0395
    1_EC     C5 1595   3.149   0.904   2.722 -0.1850 -0.1744  0.0285
    1_EC     C6 1596   3.151   1.041   2.788  0.1742 -0.3355  0.3540
    1_EC     O1 1597   2.072   0.878   1.013  0.3479 -0.6257 -0.3375
    1_EC     C2 1598   2.134   0.923   0.920 -0.3260  0.0524 -0.4754
    1_EC     O3 1599   2.128   1.056   0.892  0.1906  0.2138  0.1803
    1_EC     O4 1600   2.152   0.847   0.808 -0.3359 -0.4404 -0.1458
    1_EC     C5 1601   2.206   1.074   0.773 -0.2882 -0.2089 -0.2009
    1_EC     C6 1602   2.235   0.931   0.729  0.0179 -0.3208  0.3454
    1_EC     O1 1603   3.391   1.896   3.924  0.0981  0.2018  0.2105
    1_EC     C2 1604   3.312   1.956   3.857  0.1414 -0.0458 -0.0601
    1_EC     O3 1605   3.348   2.008   3.736  0.2405 -0.0065 -0.0132
    1_EC     O4 1606   3.182   1.916   3.843  0.1656 -0.0669 -0.2298
    1_EC     C5 1607   3.231   2.076   3.692  0.1911  0.1514  0.3525
    1_EC     C6 1608   3.121   2.033   3.788 -0.3866 -0.5191 -0.5868
    1_EC     O1 1609   0.737   3.590   0.274  0.5827  0.2826 -0.0075
    1_EC     C2 1610   0.796   3.528   0.191  0.0789 -0.4613  0.1784
    1_EC     O3 1611   0.918   3.473   0.212  0.1899 -0.0645  0.5881
    1_EC     O4 1612   0.811   3.580   0.066  0.3485 -0.0330  0.3857
    1_EC     C5 1613   0.962   3.414   0.089 -0.0911  0.0563  0.4288
    1_EC     C6 1614   0.880   3.486  -0.017  0.0556 -0.0967  0.2094
    1_EC     O1 1615   1.884   0.726   2.955 -0.6202  0.1238 -0.3871
    1_EC     C2 1616   1.920   0.755   2.844 -0.5683 -0.0672 -0.4200
    1_EC     O3 1617   1.882   0.865   2.775  0.1836  0.4283 -0.0536
    1_EC     O4 1618   2.045   0.729   2.795 -0.4222 -0.3127  0.0788
    1_EC     C5 1619   1.912   0.837   2.638 -0.1591 -0.1549 -0.0092
    1_EC     C6 1620   2.040   0.757   2.655 -0.3389 -0.4320  0.0521
    1_EC     O1 1621   1.502   2.232   1.669  0.1016 -0.4568  0.2082
    1_EC     C2 1622   1.561   2.215   1.772  0.4079  0.2243  0.1494
    1_EC     O3 1623   1.524   2.131   1.872  0.2841  0.1505  0.0407
    1_EC     O4 1624   1.613   2.321   1.840 -0.2395  0.2869  0.5528
    1_EC     C5 1625   1.648   2.118   1.942  0.4384 -0.2301 -0.2956
    1_EC     C6 1626   1.708   2.257   1.926  0.1290 -0.0748 -0.1182
    1_EC     O1 1627   1.066   3.233   0.898  0.7832 -0.2160  0.1981
    1_EC     C2 1628   1.150   3.317   0.912  0.5082  0.0265  0.4128
    1_EC     O3 1629   1.282   3.286   0.901  0.5272  0.1634  0.2526
    1_EC     O4 1630   1.142   3.452   0.896  0.0619 -0.0574 -0.0947
    1_EC     C5 1631   1.349   3.389   0.973  0.2179  0.2275  0.4488
    1_EC     C6 1632   1.251   3.505   0.971 -0.0380  0.0054  0.0057
    1_EC     O1 1633   3.131   3.164   1.032 -0.1479  0.1662  0.0762
    1_EC     C2 1634   3.023   3.114   1.024 -0.1942  0.2463  0.2101
    1_EC     O3 1635   2.914   3.177   0.972  0.1003  0.3951 -0.2305
    1_EC     O4 1636   2.993   2.989   1.071  0.1373 -0.1301 -0.5664
    1_EC     C5 1637   2.810   3.079   0.963  0.5926 -0.1377 -0.2277
    1_EC     C6 1638   2.850   2.980   1.071  0.1139  0.1616  0.2317
    1_EC     O1 1639   3.391   1.240   1.599  0.2396 -0.2580 -0.4451
    1_EC     C2 1640   3.427   1.196   1.493  0.9303  0.3829 -0.4847
    1_EC     O3 1641   3.497   1.080   1.477  0.1411 -0.1139 -0.4207
    1_EC     O4 1642   3.402   1.249   1.371  0.6266  0.4486 -0.3945
    1_EC     C5 1643   3.497   1.048   1.338  0.2161  0.0379 -0.4563
    1_EC     C6 1644   3.474   1.181   1.268  0.1542  0.0288 -0.4542
    1_EC     O1 1645   2.434   0.770   2.237 -0.5095  0.2290  0.0634
    1_EC     C2 1646   2.352   0.682   2.232 -0.3311  0.0688 -0.0376
    1_EC     O3 1647   2.293   0.630   2.121 -0.0281 -0.1218 -0.1100
    1_EC     O4 1648   2.377   0.573   2.308 -0.0716  0.3815  0.3270
    1_EC     C5 1649   2.196   0.537   2.167 -0.0232 -0.0691  0.0057
    1_EC     C6 1650   2.255   0.499   2.302  0.3082 -0.2223 -0.1799
    1_EC     O1 1651   1.414   3.858   2.651 -0.4197  0.5721  0.5180
    1_EC     C2 1652   1.397   3.791   2.749 -0.1773  0.0057  0.1752
    1_EC     O3 1653   1.296   3.700   2.748 -0.2233  0.0568  0.1720
    1_EC     O4 1654   1.491   3.742   2.834 -0.4057  0.1297  0.4994
    1_EC     C5 1655   1.293   3.642   2.879 -0.4971 -0.1269  0.0863
    1_EC     C6 1656   1.415   3.700   2.948 -0.4123 -0.5150  0.2616
    1_EC     O1 1657   1.091   1.646   2.695  0.4164 -0.3874 -0.1252
    1_EC     C2 1658   1.001   1.685   2.627  0.3349  0.0097  0.2063
    1_EC     O3 1659   0.994   1.674   2.491 -0.0963  0.0804  0.2198
    1_EC     O4 1660   0.872   1.686   2.670  0.2448  0.2756 -0.0620
    1_EC     C5 1661   0.875   1.742   2.451  0.0832  0.1452 -0.2134
    1_EC     C6 1662   0.785   1.747   2.574 -0.1487 -0.7101 -0.3411
    1_EC     O1 1663   0.445   2.572   2.415  0.2120 -0.5711  0.1616
    1_EC     C2 1664   0.478   2.497   2.327  0.5574  0.2245 -0.4055
    1_EC     O3 1665   0.468   2.363   2.348  0.0201  0.3578  0.2137
    1_EC     O4 1666   0.473   2.520   2.193 -0.6178 -0.6338 -0.5261
    1_EC     C5 1667   0.559   2.316   2.249  0.1273  0.2675  0.3535
    1_EC     C6 1668   0.550   2.415   2.134  0.4686 -0.1396 -0.0291
    1_EC     O1 1669   2.230   1.823   1.636 -0.2915  0.5681  0.1255
    1_EC     C2 1670   2.133   1.790   1.699 -0.0379 -0.4170  0.0210
    1_EC     O3 1671   2.027   1.715   1.660  0.1110 -0.4610 -0.3002
    1_EC     O4 1672   2.071   1.886   1.773 -0.0723 -0.1207 -0.3924
    1_EC     C5 1673   1.965   1.682   1.784  0.1936 -0.4040 -0.2441
    1_EC     C6 1674   1.984   1.813   1.860  0.1437 -0.3332 -0.3544
    1_EC     O1 1675   1.276   1.776   3.193 -0.2482  0.4255 -0.1830
    1_EC     C2 1676   1.263   1.850   3.286 -0.0598 -0.8821  0.9216
    1_EC     O3 1677   1.370   1.909   3.347  0.2717  0.0978 -0.5602
    1_EC     O4 1678   1.160   1.939   3.288  0.4457 -0.2606  0.0340
    1_EC     C5 1679   1.316   1.982   3.458  0.2679  0.0164 -0.5084
    1_EC     C6 1680   1.179   2.021   3.404  0.8680  1.3452 -1.1294
    1_EC     O1 1681   0.840   2.319   1.187 -0.4637  0.0124 -0.0884
    1_EC     C2 1682   0.808   2.249   1.279  0.3530 -0.5081 -0.1848
    1_EC     O3 1683   0.881   2.236   1.393  0.1290 -0.1466  0.0025
    1_EC     O4 1684   0.677   2.232   1.312  0.4714 -0.2712  0.4239
    1_EC     C5 1685   0.815   2.134   1.469  0.3286 -0.3178 -0.0511
    1_EC     C6 1686   0.675   2.129   1.411  0.2586 -0.5421  0.1390
    1_EC     O1 1687   1.552   2.619   0.233  0.3038  0.0897 -0.4575
    1_EC     C2 1688   1.595   2.731   0.239  0.2211  0.1072 -0.1662
    1_EC     O3 1689   1.670   2.781   0.137  0.1471  0.1168 -0.2163
    1_EC     O4 1690   1.516   2.833   0.281 -0.3788 -0.3900 -0.0663
    1_EC     C5 1691   1.718   2.904   0.192  0.6146 -0.1068 -0.1150
    1_EC     C6 1692   1.601   2.948   0.278  0.1834 -0.8031 -0.3335
    1_EC     O1 1693   2.903   1.402   3.810  0.2766 -0.1805  0.2200
    1_EC     C2 1694   2.971   1.488   3.860 -0.1082  0.1516  0.1705
    1_EC     O3 1695   3.106   1.490   3.867 -0.1100  0.1102  0.2144
    1_EC     O4 1696   2.917   1.582   3.942 -0.3990  0.1766 -0.0439
    1_EC     C5 1697   3.143   1.623   3.903 -0.3718  0.2090  0.1211
    1_EC     C6 1698   3.025   1.662   3.991 -0.4325  0.1574  0.0624
    1_EC     O1 1699   0.912   3.532   2.626  0.1129 -0.4729  0.6957
    1_EC     C2 1700   0.857   3.630   2.668  0.1358 -0.0429 -0.2341
    1_EC     O3 1701   0.834   3.666   2.798 -0.4538 -0.1407 -0.3122
    1_EC     O4 1702   0.750   3.680   2.601 -0.3082 -0.1449  0.3859
    1_EC     C5 1703   0.793   3.803   2.792 -0.0668 -0.0092  0.0893
    1_EC     C6 1704   0.732   3.812   2.653  0.0072  0.0299  0.0593
    1_EC     O1 1705   2.099   3.689   3.195 -0.5018 -0.6385  0.5229
    1_EC     C2 1706   2.171   3.598   3.224 -0.1808 -0.4311  0.3881
    1_EC     O3 1707   2.137   3.530   3.337 -0.1387  0.1732  0.7674
    1_EC     O4 1708   2.306   3.608   3.232 -0.2268  0.1649  0.4145
    1_EC     C5 1709   2.241   3.435   3.364  0.0548  0.3019  0.4724
    1_EC     C6 1710   2.358   3.483   3.279 -0.1569  0.0521  0.0371
    1_EC     O1 1711   2.735   1.946   3.878  0.9038 -0.2416  0.1425
    1_EC     C2 1712   2.711   1.847   3.815 -0.3084  0.2597 -0.2162
    1_EC     O3 1713   2.720   1.832   3.680 -0.3615  0.5347 -0.2512
    1_EC     O4 1714   2.610   1.764   3.850 -0.0292 -0.1268 -0.3243
    1_EC     C5 1715   2.677   1.703   3.638  0.8202  0.0189  0.0661
    1_EC     C6 1716   2.576   1.671   3.747  0.5717 -0.4002 -0.2833
    1_EC     O1 1717   0.184   3.582   3.824  0.3808 -0.2346 -0.2530
    1_EC     C2 1718   0.181   3.698   3.852 -0.0718 -0.3640  0.2456
    1_EC     O3 1719   0.058   3.756   3.860  0.0200 -0.1130 -0.1265
    1_EC     O4 1720   0.261   3.794   3.799 -0.1377 -0.5128 -0.1237
    1_EC     C5 1721   0.077   3.896   3.884 -0.3949 -0.0714 -0.0205
    1_EC     C6 1722   0.215   3.927   3.826 -0.4342 -0.5611 -0.3866
    1_EC     O1 1723   0.795   1.320   1.557 -0.3613  0.3475 -0.0828
    1_EC     C2 1724   0.685   1.276   1.540 -0.1415 -0.2289 -0.0400
    1_EC     O3 1725   0.655   1.214   1.423 -0.4593  0.0860 -0.1283
    1_EC     O4 1726   0.617   1.211   1.639  0.4516  0.3330  0.7546
    1_EC     C5 1727   0.517   1.180   1.434 -0.4544  0.1982  0.2950
    1_EC     C6 1728   0.498   1.155   1.583  0.8165 -0.1104  0.4149
    1_EC     O1 1729   1.895   1.968   2.156 -0.2272  0.5583 -0.0406
    1_EC     C2 1730   1.958   2.047   2.220 -0.3283  0.1882  0.5180
    1_EC     O3 1731   2.020   2.158   2.169  0.1027 -0.3766 -0.2100
    1_EC     O4 1732   2.056   2.009   2.308  0.5808  0.3846 -0.3889
    1_EC     C5 1733   2.049   2.235   2.286 -0.5714 -0.4032 -0.0172
    1_EC     C6 1734   2.064   2.125   2.391  0.7890 -0.0390  0.1876
    1_EC     O1 1735   3.311   0.224   0.949  0.2205  0.6043  0.1482
    1_EC     C2 1736   3.323   0.234   0.830  0.0909 -0.3576  0.0451
    1_EC     O3 1737   3.404   0.324   0.767 -0.4789  0.2265  0.1341
    1_EC     O4 1738   3.261   0.154   0.740 -0.2543 -0.0861  0.0403
    1_EC     C5 1739   3.408   0.291   0.627 -0.1780 -0.1982  0.2403
    1_EC     C6 1740   3.275   0.219   0.614 -0.1883 -0.1378  0.0211
    1DMC     O1 1741   3.950   3.508   0.603  0.6313 -0.3847 -0.1535
    1DMC     C2 1742   3.921   3.598   0.528 -0.3482  0.2137  0.9101
    1DMC     O3 1743   3.810   3.598   0.453  0.0087  0.3597  0.3795
    1DMC     O4 1744   3.958   3.726   0.540 -0.2209  0.2670 -0.0196
    1DMC     C5 1745   3.745   3.473   0.465 -0.2176  0.4867  0.4754
    1DMC     C6 1746   4.035   3.744   0.657 -0.2334  0.0309  0.0258
    1DMC     O1 1747   0.868   3.919   1.157  0.0677  0.0609  0.5146
    1DMC     C2 1748   0.821   4.024   1.194 -0.0123  0.1893  0.0559
    1DMC     O3 1749   0.688   4.044   1.191  0.0027  0.3407  0.4485
    1DMC     O4 1750   0.887   4.128   1.246 -0.5361  0.2943  0.5187
    1DMC     C5 1751   0.621   3.961   1.099  0.7748  0.1118  0.0787
    1DMC     C6 1752   1.018   4.103   1.292 -0.3295 -0.6527 -0.5477
    1DMC     O1 1753   1.740   0.547   2.656 -0.0734 -0.6965  0.3792
    1DMC     C2 1754   1.710   0.477   2.565 -0.1453 -0.6458  0.3641
    1DMC     O3 1755   1.794   0.390   2.506 -0.0540 -0.0870 -0.3429
    1DMC     O4 1756   1.592   0.471   2.500  0.0820  0.0037 -0.1217
    1DMC     C5 1757   1.917   0.366   2.570  0.1382  0.5730 -0.4564
    1DMC     C6 1758   1.496   0.557   2.557 -0.1443 -0.2371 -0.1358
    1DMC     O1 1759   3.370   0.781   2.509  0.0730 -0.8902 -0.3458
    1DMC     C2 1760   3.328   0.767   2.398 -0.5406 -0.0866 -0.2193
    1DMC     O3 1761   3.353   0.652   2.334  0.6266  0.0382 -0.0096
    1DMC     O4 1762   3.265   0.858   2.321 -0.6419 -0.3390 -0.4360
    1DMC     C5 1763   3.376   0.544   2.422 -0.1750  0.1422  0.3396
    1DMC     C6 1764   3.243   0.975   2.396  0.5060 -0.4188  0.0524
    1DMC     O1 1765   3.913   3.786   2.661 -0.1850  0.4775  0.2011
    1DMC     C2 1766   3.824   3.864   2.681 -0.5710  0.0942 -0.0064
    1DMC     O3 1767   3.813   3.986   2.628 -0.4609  0.0878 -0.0448
    1DMC     O4 1768   3.707   3.838   2.742 -0.6050 -0.1062 -0.1552
    1DMC     C5 1769   3.920   4.026   2.545 -0.3124 -0.4699 -0.1220
    1DMC     C6 1770   3.688   3.701   2.768  0.2542 -0.2237 -0.1275
    1DMC     O1 1771   2.302   3.748   1.112  0.0894 -0.2068  0.1242
    1DMC     C2 1772   2.397   3.726   1.182  0.3235 -0.4393 -0.2576
    1DMC     O3 1773   2.413   3.615   1.256  0.0090  0.2170  0.8114
    1DMC     O4 1774   2.521   3.767   1.150  0.1819 -0.1660 -0.4594
    1DMC     C5 1775   2.305   3.524   1.265  0.3373 -0.2279  0.2689
    1DMC     C6 1776   2.515   3.843   1.031 -0.7288  0.2687 -0.1469
    1DMC     O1 1777   0.223   0.765   3.177  0.5765  0.0460 -0.3003
    1DMC     C2 1778   0.264   0.652   3.177 -0.2269 -0.2513 -0.3206
    1DMC     O3 1779   0.393   0.621   3.154 -0.1280  0.3465 -0.5759
    1DMC     O4 1780   0.183   0.545   3.170 -0.0193 -0.4559  0.3049
    1DMC     C5 1781   0.463   0.735   3.109 -0.3557  0.4989 -0.5447
    1DMC     C6 1782   0.047   0.581   3.155  0.1096 -0.0234  0.1490
    1DMC     O1 1783   1.619   0.274   2.831  0.2699  0.4951 -0.2701
    1DMC     C2 1784   1.724   0.245   2.882  0.2838  0.3437 -0.3846
    1DMC     O3 1785   1.781   0.123   2.874 -0.4941 -0.0704  0.2090
    1DMC     O4 1786   1.794   0.325   2.965  0.2414 -0.0716  0.0582
    1DMC     C5 1787   1.699   0.033   2.803 -0.0484  0.0159 -0.4156
    1DMC     C6 1788   1.735   0.452   2.978 -0.4397 -0.3806  0.0634
    1DMC     O1 1789   3.302   3.791   0.601 -0.2859 -0.1365  0.0268
    1DMC     C2 1790   3.371   3.693   0.608 -0.1000 -0.0064  0.0512
    1DMC     O3 1791   3.324   3.570   0.637 -0.0942 -0.0266 -0.0247
    1DMC     O4 1792   3.487   3.685   0.540 -0.2102  0.4707 -0.1915
    1DMC     C5 1793   3.187   3.565   0.669 -0.1677  0.1143 -0.3068
    1DMC     C6 1794   3.509   3.809   0.475 -0.1644  0.5119 -0.0981
    1DMC     O1 1795   1.688   0.404   0.044 -0.1070  0.5514  0.3709
    1DMC     C2 1796   1.796   0.428  -0.001  0.0473 -0.1951  0.3362
    1DMC     O3 1797   1.828   0.524  -0.090 -0.4527 -0.2158  0.1346
    1DMC     O4 1798   1.901   0.343  -0.010  0.2804  0.1486 -0.2070
    1DMC     C5 1799   1.722   0.614  -0.113 -0.1511  0.0221 -0.3359
    1DMC     C6 1800   1.882   0.231   0.073 -0.3585  0.4736  0.0938
    1DMC     O1 1801   0.241   3.220   1.737  0.2866  0.1713 -0.3218
    1DMC     C2 1802   0.352   3.183   1.712  0.2299 -0.0641 -0.2210
    1DMC     O3 1803   0.394   3.056   1.695  0.1630 -0.2122  0.6378
    1DMC     O4 1804   0.434   3.264   1.644 -0.0420  0.2097 -0.2231
    1DMC     C5 1805   0.284   2.968   1.696  0.0009 -0.0126  0.4273
    1DMC     C6 1806   0.371   3.387   1.617 -0.1151  0.2697  0.2128
    1DMC     O1 1807   0.841   2.451   3.254  0.2122 -0.4459  0.3521
    1DMC     C2 1808   0.752   2.470   3.332  0.0731 -0.1863  0.1339
    1DMC     O3 1809   0.624   2.497   3.300  0.2847  0.6311 -0.0531
    1DMC     O4 1810   0.753   2.435   3.462  0.1265  0.7036  0.3808
    1DMC     C5 1811   0.597   2.505   3.162 -0.1973 -0.1949 -0.0162
    1DMC     C6 1812   0.867   2.367   3.509 -0.2210  0.1083  0.3761
    1DMC     O1 1813   3.682   3.390   3.924  0.1302  0.2010  0.4602
    1DMC     C2 1814   3.714   3.361   4.035  0.2342 -0.4027  0.2740
    1DMC     O3 1815   3.637   3.306   4.131 -0.1275 -0.2706  0.0564
    1DMC     O4 1816   3.841   3.344   4.077  0.4616 -0.2265 -0.3304
    1DMC     C5 1817   3.520   3.254   4.071 -0.2945  0.6199 -0.4129
    1DMC     C6 1818   3.926   3.392   3.976 -0.2158  0.0531 -0.7756
    1DMC     O1 1819   0.755   3.758   0.695 -0.0264  0.0615  0.2224
    1DMC     C2 1820   0.734   3.647   0.737 -0.7304  0.4442  0.9222
    1DMC     O3 1821   0.771   3.597   0.857  0.2682  0.0270  0.4547
    1DMC     O4 1822   0.642   3.567   0.682  0.0245 -0.1556  0.5077
    1DMC     C5 1823   0.859   3.685   0.924  0.2378  0.6424 -0.2841
    1DMC     C6 1824   0.622   3.610   0.549 -0.1090 -0.5983  0.3821
    1DMC     O1 1825   2.530   2.772   0.970  0.3823 -0.0959 -0.0925
    1DMC     C2 1826   2.586   2.706   0.887 -0.2460 -0.6122 -0.1123
    1DMC     O3 1827   2.636   2.763   0.776 -0.6032 -0.1806 -0.0540
    1DMC     O4 1828   2.669   2.603   0.909  0.0740 -0.4200 -0.4109
    1DMC     C5 1829   2.593   2.896   0.752  0.1243  0.1672  0.5258
    1DMC     C6 1830   2.665   2.547   1.038 -0.4573  0.0419 -0.2223
    1DMC     O1 1831   0.125   0.013   1.542 -0.1955  0.7537  0.3515
    1DMC     C2 1832   0.176   0.102   1.605  0.1288  0.5783  0.3438
    1DMC     O3 1833   0.120   0.170   1.707 -0.3792  0.0534  0.4226
    1DMC     O4 1834   0.300   0.145   1.578  0.2950 -0.0446  0.1006
    1DMC     C5 1835  -0.018   0.150   1.721 -0.4664  0.0546 -0.3649
    1DMC     C6 1836   0.365   0.074   1.475  0.1355 -0.4922  0.3070
    1DMC     O1 1837   1.703   1.822   3.390 -0.3052 -0.3707 -0.1057
    1DMC     C2 1838   1.701   1.929   3.336 -0.5351 -0.2756  0.0924
    1DMC     O3 1839   1.712   1.943   3.203  0.9201  0.1042  0.2371
    1DMC     O4 1840   1.713   2.052   3.388  0.1736 -0.1494 -0.3696
    1DMC     C5 1841   1.677   1.827   3.130 -0.1998  0.4493  0.2039
    1DMC     C6 1842   1.758   2.060   3.522 -0.0710  0.6739 -0.3334
    1DMC     O1 1843   2.973   2.971   2.068  0.1357 -0.4625 -0.6319
    1DMC     C2 1844   2.996   3.087   2.093  0.0885 -0.5182 -0.3240
    1DMC     O3 1845   2.905   3.179   2.130  0.3458 -0.3989  0.0092
    1DMC     O4 1846   3.114   3.146   2.069  0.0194 -0.1147  0.3050
    1DMC     C5 1847   2.779   3.123   2.162 -0.1552  0.2841 -0.7457
    1DMC     C6 1848   3.197   3.044   2.018 -0.2027  0.1639 -0.6447
    1DMC     O1 1849   2.161   3.882   0.706 -0.8491  0.4738  0.3973
    1DMC     C2 1850   2.067   3.808   0.693 -0.2598 -0.2572  0.2177
    1DMC     O3 1851   1.947   3.820   0.752 -0.3924  0.1639 -0.1354
    1DMC     O4 1852   2.050   3.717   0.596  0.3612 -0.2166  0.0630
    1DMC     C5 1853   1.949   3.923   0.849 -0.5930 -0.0186  0.0631
    1DMC     C6 1854   2.161   3.710   0.509  0.0200 -0.3966 -0.3623
    1DMC     O1 1855   3.157   2.462   2.423  0.2123  0.1852 -0.2514
    1DMC     C2 1856   3.114   2.398   2.330 -0.3635  0.2681 -0.0498
    1DMC     O3 1857   3.135   2.266   2.324  0.6418  0.4300 -0.3937
    1DMC     O4 1858   3.106   2.449   2.206  0.2925 -0.5120 -0.4256
    1DMC     C5 1859   3.221   2.204   2.417 -0.0960 -0.0832 -0.0408
    1DMC     C6 1860   3.133   2.587   2.211  0.1236 -0.5058  0.6811
    1DMC     O1 1861   0.925   0.909   0.565 -0.0404 -0.3514  0.8280
    1DMC     C2 1862   0.863   0.882   0.664 -0.0799  0.0718  0.9211
    1DMC     O3 1863   0.805   0.982   0.733 -0.7387  0.0624  0.3860
    1DMC     O4 1864   0.823   0.757   0.694 -0.2736 -0.1589 -0.2698
    1DMC     C5 1865   0.849   1.108   0.686  0.5122 -0.4534  0.1180
    1DMC     C6 1866   0.903   0.653   0.642 -0.0144 -0.1161  0.0394
    1DMC     O1 1867   2.572   3.442   3.812 -0.1577  0.2082  0.6749
    1DMC     C2 1868   2.474   3.430   3.743  0.2200 -0.2163  0.2073
    1DMC     O3 1869   2.471   3.365   3.625 -0.5120 -0.9467  0.6161
    1DMC     O4 1870   2.355   3.485   3.770  0.2891 -0.1973  0.4825
    1DMC     C5 1871   2.593   3.299   3.602 -0.0780 -0.1122  0.4990
    1DMC     C6 1872   2.343   3.549   3.894  0.4642  0.1701  0.3105
    1DMC     O1 1873   3.699   1.492   1.585  0.0263  0.8061  0.0468
    1DMC     C2 1874   3.594   1.539   1.622 -0.6058 -0.3774 -0.2048
    1DMC     O3 1875   3.569   1.595   1.742 -0.4310  0.4675 -0.5555
    1DMC     O4 1876   3.501   1.595   1.544 -0.0324  0.2875 -0.4179
    1DMC     C5 1877   3.687   1.579   1.818 -0.7064 -0.5080 -0.3135
    1DMC     C6 1878   3.531   1.593   1.406 -0.5226 -0.2054 -0.5182
    1DMC     O1 1879   3.733   2.116   3.635  0.4991  0.1607  0.1392
    1DMC     C2 1880   3.640   2.169   3.691  0.6235  0.4849  0.0413
    1DMC     O3 1881   3.620   2.166   3.823  0.1384  0.5036 -0.0293
    1DMC     O4 1882   3.555   2.255   3.632 -0.0642 -0.1900  0.0319
    1DMC     C5 1883   3.705   2.067   3.876  0.0182  0.2618 -0.2875
    1DMC     C6 1884   3.580   2.248   3.494 -0.5855  0.1665 -0.0824
    1DMC     O1 1885   3.961   2.383   1.973 -0.2729  0.0414 -0.1777
    1DMC     C2 1886   4.025   2.284   1.952 -0.0275  0.1522  0.0268
    1DMC     O3 1887   4.003   2.200   1.849  0.0632  0.0992  0.0511
    1DMC     O4 1888   4.119   2.233   2.033  0.0137 -0.0462 -0.1443
    1DMC     C5 1889   3.872   2.218   1.800  0.3643  0.2691 -0.7190
    1DMC     C6 1890   4.152   2.311   2.145  0.0457  0.2055 -0.3269
    1DMC     O1 1891   0.694   1.038   1.095  0.5925  0.2480 -0.3974
    1DMC     C2 1892   0.641   1.096   1.004 -0.3478 -0.0638 -0.0703
    1DMC     O3 1893   0.657   1.228   0.986 -0.3741  0.0068  0.4192
    1DMC     O4 1894   0.560   1.051   0.907 -0.3698  0.2486 -0.1988
    1DMC     C5 1895   0.735   1.293   1.084 -0.0038 -0.5386  0.4867
    1DMC     C6 1896   0.508   0.926   0.948  0.6257 -0.0575  0.1797
    1DMC     O1 1897   1.602   3.113   3.888  0.1780 -0.6604 -0.4143
    1DMC     C2 1898   1.659   3.203   3.833 -0.5185  0.0389 -0.0188
    1DMC     O3 1899   1.652   3.236   3.703  0.1936 -0.0883 -0.0955
    1DMC     O4 1900   1.759   3.278   3.882 -0.4578 -0.2365  0.2851
    1DMC     C5 1901   1.544   3.166   3.645 -0.0223  0.2493 -0.1058
    1DMC     C6 1902   1.813   3.240   4.006 -0.1636 -0.1402  0.1875
    1DMC     O1 1903   3.562   2.050   0.298 -0.2817  0.0467  0.2282
    1DMC     C2 1904   3.497   2.149   0.279 -0.1795  0.1404  0.3640
    1DMC     O3 1905   3.373   2.139   0.228 -0.1126 -0.2791  0.2828
    1DMC     O4 1906   3.548   2.273   0.262 -0.4523  0.1491 -0.4260
    1DMC     C5 1907   3.312   2.015   0.258 -0.3256 -0.2048  0.1561
    1DMC     C6 1908   3.679   2.272   0.313 -0.6809 -0.0567  0.1755
    1DMC     O1 1909   0.983   2.408   0.193  0.1000  0.1485  0.4778
    1DMC     C2 1910   1.053   2.317   0.158 -0.0473  0.1005  0.3037
    1DMC     O3 1911   1.009   2.206   0.098  0.3562  0.0138  0.1697
    1DMC     O4 1912   1.187   2.327   0.162  0.0198 -0.5883 -0.1973
    1DMC     C5 1913   0.873   2.198   0.061  0.2500  0.2636  0.5048
    1DMC     C6 1914   1.229   2.455   0.202 -0.0641 -0.5230 -0.3182
    1DMC     O1 1915   0.455   3.599   1.022 -0.2975 -0.0811 -0.1967
    1DMC     C2 1916   0.477   3.481   1.029  0.6830  0.0959 -0.0987
    1DMC     O3 1917   0.534   3.408   1.126 -0.0606  0.2827  0.4959
    1DMC     O4 1918   0.438   3.399   0.931  0.7381  0.3296 -0.3178
    1DMC     C5 1919   0.578   3.466   1.246  0.2386  0.1248  0.4643
    1DMC     C6 1920   0.336   3.448   0.847  0.4164  0.3112  0.0575
    1DMC     O1 1921   3.819   0.513   0.149  0.0128  0.1334 -0.2016
    1DMC     C2 1922   3.938   0.517   0.163 -0.0451 -0.3977  0.4918
    1DMC     O3 1923   4.015   0.409   0.177  0.2355 -0.1847  0.6039
    1DMC     O4 1924   3.995   0.627   0.215 -0.2659  0.1926 -0.4926
    1DMC     C5 1925   3.936   0.300   0.135  0.3727 -0.0486 -0.0147
    1DMC     C6 1926   3.905   0.734   0.233 -0.8883 -0.3840 -0.1373
    1DMC     O1 1927   3.792   0.448   2.578  0.0873 -0.1488  0.0219
    1DMC     C2 1928   3.839   0.555   2.552  0.0342 -0.1127  0.0757
    1DMC     O3 1929   3.799   0.634   2.451 -0.3344  0.1195  0.4034
    1DMC     O4 1930   3.894   0.633   2.646 -0.3340  0.0222  0.1818
    1DMC     C5 1931   3.738   0.562   2.346  0.1318 -0.4081  0.4948
    1DMC     C6 1932   3.903   0.563   2.768  0.2934  0.0759  0.1726
    1DMC     O1 1933   1.643   2.081   1.062  0.6004  0.6927 -0.0452
    1DMC     C2 1934   1.558   2.147   1.116  0.1297  0.1036 -0.0536
    1DMC     O3 1935   1.450   2.184   1.045  0.3987  0.4111 -0.3072
    1DMC     O4 1936   1.543   2.150   1.249 -0.4104  0.7149 -0.1209
    1DMC     C5 1937   1.467   2.205   0.906  0.2874  0.2076 -0.3522
    1DMC     C6 1938   1.663   2.102   1.306 -0.4314  0.7066 -0.0832
    1DMC     O1 1939   0.955   1.414   3.742  0.4379 -0.6994 -0.0959
    1DMC     C2 1940   0.884   1.334   3.795 -0.6210  0.1952 -0.1448
    1DMC     O3 1941   0.810   1.348   3.907 -0.2702 -0.4410  0.1722
    1DMC     O4 1942   0.859   1.217   3.734 -0.2774 -0.0042  0.0931
    1DMC     C5 1943   0.826   1.475   3.965 -0.1712 -0.0306 -0.7364
    1DMC     C6 1944   0.907   1.226   3.601 -0.3670  0.4695  0.0903
    1DMC     O1 1945   2.948   3.099   2.892  0.1169  0.5937 -0.0843
    1DMC     C2 1946   3.065   3.070   2.893 -0.0693 -0.1601  0.4377
    1DMC     O3 1947   3.166   3.155   2.915  0.1055 -0.1671 -0.3345
    1DMC     O4 1948   3.098   2.943   2.924 -0.1179 -0.3818 -0.3861
    1DMC     C5 1949   3.125   3.290   2.903  0.4850 -0.0047  0.1690
    1DMC     C6 1950   2.981   2.872   2.960 -0.5898  0.4444 -0.2567
    1DMC     O1 1951   2.842   3.879   1.125 -0.3328 -0.2291 -0.0392
    1DMC     C2 1952   2.927   3.801   1.158 -0.7284 -0.7071 -0.1402
    1DMC     O3 1953   2.994   3.712   1.082  0.3052 -0.1972  0.1500
    1DMC     O4 1954   3.000   3.824   1.269 -1.1463 -0.6543  0.1228
    1DMC     C5 1955   2.971   3.723   0.943  0.5034  0.8400  0.1909
    1DMC     C6 1956   2.925   3.915   1.346  0.3288  0.4620  0.2571
    1DMC     O1 1957   3.503   3.761   3.914  0.5452 -0.2715  0.0805
    1DMC     C2 1958   3.527   3.680   3.999  0.0491 -0.7944 -0.2770
    1DMC     O3 1959   3.436   3.594   4.049 -0.1352 -0.3676  0.1217
    1DMC     O4 1960   3.652   3.647   4.034  0.1865  0.2700  0.2656
    1DMC     C5 1961   3.311   3.625   3.992  0.0190 -0.2148 -0.1359
    1DMC     C6 1962   3.752   3.739   4.000  0.0194  0.2517 -0.2797
    1DMC     O1 1963   1.113   1.212   2.870 -0.2672 -0.0143  0.6428
    1DMC     C2 1964   0.994   1.194   2.867 -0.3654  0.7615 -0.4259
    1DMC     O3 1965   0.937   1.099   2.791 -0.0115  0.3781 -0.2187
    1DMC     O4 1966   0.907   1.242   2.957 -0.5941 -0.6721  0.1396
    1DMC     C5 1967   1.033   1.013   2.734  0.2274  0.2708  0.3399
    1DMC     C6 1968   0.962   1.335   3.049  0.5148 -0.2057 -0.9677
    1DMC     O1 1969   0.856   2.089   3.037  0.6441 -0.2509  0.1133
    1DMC     C2 1970   0.826   1.984   3.086  0.7451 -0.2826  0.1091
    1DMC     O3 1971   0.778   1.972   3.211  0.1857  0.7306  0.0099
    1DMC     O4 1972   0.861   1.863   3.040  0.8535 -0.2332  0.0613
    1DMC     C5 1973   0.786   2.100   3.270 -0.0874  0.6300  0.2664
    1DMC     C6 1974   0.957   1.875   2.937  0.0555  0.2875 -0.6365
    1DMC     O1 1975   1.888   3.899   0.244  0.4197 -0.2083  0.0661
    1DMC     C2 1976   1.868   3.799   0.307 -0.1377  0.1196  0.4200
    1DMC     O3 1977   1.928   3.684   0.270 -0.1850  0.1774  0.1657
    1DMC     O4 1978   1.800   3.795   0.423  0.5729  0.1842  0.8452
    1DMC     C5 1979   2.016   3.682   0.160  0.3243 -0.3020  0.5797
    1DMC     C6 1980   1.726   3.913   0.445  0.2130  0.1001  0.1135
    1DMC     O1 1981   2.607   3.211   1.175  0.1490 -0.1838 -0.3781
    1DMC     C2 1982   2.611   3.272   1.279 -0.7555  0.2503 -0.5848
    1DMC     O3 1983   2.546   3.234   1.390  0.0170  0.2843 -0.1176
    1DMC     O4 1984   2.681   3.386   1.296 -0.1488 -0.1677 -0.2543
    1DMC     C5 1985   2.474   3.116   1.364 -0.3444  0.3808  0.4254
    1DMC     C6 1986   2.750   3.436   1.184  0.3724 -0.6336 -0.1491
    1DMC     O1 1987   3.743   0.612   3.406 -0.4604  0.4336  0.7064
    1DMC     C2 1988   3.697   0.689   3.326  0.2853  0.4778  0.3132
    1DMC     O3 1989   3.760   0.802   3.288  0.7564  0.0234 -0.2684
    1DMC     O4 1990   3.589   0.670   3.249  0.1965  0.2626  0.4898
    1DMC     C5 1991   3.868   0.831   3.374  0.6819 -0.2407 -0.0845
    1DMC     C6 1992   3.526   0.544   3.256  0.0545  0.3141  0.1430
    1DMC     O1 1993   2.138   0.316   0.242  0.0989 -0.0353 -0.3976
    1DMC     C2 1994   2.214   0.260   0.317 -0.0486  0.1747 -0.0854
    1DMC     O3 1995   2.182   0.203   0.434  0.0171 -0.1968 -0.2484
    1DMC     O4 1996   2.348   0.255   0.308 -0.0438 -0.1458  0.1423
    1DMC     C5 1997   2.046   0.216   0.467  0.0857  0.6923 -0.3067
    1DMC     C6 1998   2.395   0.341   0.206  0.1088 -0.4529 -0.0474
    1DMC     O1 1999   1.973   2.774   0.922  0.3874  0.0790  0.2953
    1DMC     C2 2000   2.036   2.738   1.018 -0.2014 -0.7575  0.3754
    1DMC     O3 2001   1.995   2.761   1.144  0.3070  0.2912  0.3549
    1DMC     O4 2002   2.158   2.681   1.013  0.1430  0.0030  0.0261
    1DMC     C5 2003   1.861   2.799   1.160  0.3337  0.5070  0.0721
    1DMC     C6 2004   2.163   2.606   0.894  0.0363 -0.4328  0.2951
    1DMC     O1 2005   3.846   1.818   0.486  0.2891  0.2017 -0.0386
    1DMC     C2 2006   3.759   1.791   0.564  0.2879  0.7036  0.1385
    1DMC     O3 2007   3.745   1.666   0.611  0.4248  0.5366 -0.2583
    1DMC     O4 2008   3.683   1.876   0.635 -0.4408  0.1497  0.0417
    1DMC     C5 2009   3.832   1.581   0.540  0.1303  0.2890 -0.3304
    1DMC     C6 2010   3.695   2.009   0.588  0.2557 -0.1236 -0.5837
    1DMC     O1 2011   1.434   1.659   1.530 -0.0420 -0.2074 -0.3390
    1DMC     C2 2012   1.481   1.608   1.628 -0.9348 -0.5905 -0.0988
    1DMC     O3 2013   1.498   1.670   1.746  0.0906 -0.1101 -0.4820
    1DMC     O4 2014   1.559   1.498   1.625 -0.2907 -0.1512  0.1319
    1DMC     C5 2015   1.435   1.796   1.754 -0.5643 -0.4828  0.4829
    1DMC     C6 2016   1.559   1.450   1.492 -0.1573  0.8777 -0.2483
    1DMC     O1 2017   0.919   0.174   0.599  0.3521  0.4800 -0.1544
    1DMC     C2 2018   0.833   0.205   0.675 -0.4112 -0.0020 -0.8065
    1DMC     O3 2019   0.739   0.300   0.661 -0.4106  0.1573  0.1758
    1DMC     O4 2020   0.818   0.144   0.794 -0.2743 -0.3387 -0.9616
    1DMC     C5 2021   0.734   0.359   0.533  0.2404  0.9384  0.5088
    1DMC     C6 2022   0.909   0.040   0.823 -0.1180  0.0349 -0.0774
    1DMC     O1 2023   3.709   0.197   3.501  0.0471  0.1864  0.2315
    1DMC     C2 2024   3.648   0.143   3.590 -0.2830 -0.4847 -0.3875
    1DMC     O3 2025   3.529   0.191   3.631 -0.3398 -0.2573 -0.8060
    1DMC     O4 2026   3.683   0.036   3.663  0.1781  0.0410  0.1649
    1DMC     C5 2027   3.493   0.302   3.552 -0.0126 -0.1022 -0.7423
    1DMC     C6 2028   3.805  -0.016   3.616 -0.0541 -0.2450 -0.1179
    1DMC     O1 2029   2.943   3.137   3.620 -0.2197  1.3365  0.1525
    1DMC     C2 2030   3.048   3.187   3.588  0.2190 -0.0745 -0.6774
    1DMC     O3 2031   3.055   3.313   3.543 -0.1157  0.2389  0.1324
    1DMC     O4 2032   3.158   3.164   3.662 -0.2103 -0.0043 -0.0101
    1DMC     C5 2033   2.941   3.359   3.473 -0.1087  0.0659  0.0054
    1DMC     C6 2034   3.142   3.047   3.740  0.0837  0.0873  0.1880
    1DMC     O1 2035   0.182   3.346   0.314  0.6052  0.2294 -0.0738
    1DMC     C2 2036   0.214   3.376   0.425 -0.0961 -0.1839  0.2412
    1DMC     O3 2037   0.204   3.295   0.533  0.3883 -0.4287  0.1059
    1DMC     O4 2038   0.270   3.492   0.462 -0.4143  0.1374 -0.2859
    1DMC     C5 2039   0.142   3.170   0.513 -0.1745 -0.0601 -0.5127
    1DMC     C6 2040   0.322   3.565   0.353  0.7292 -0.0909  0.1007
    1DMC     O1 2041   3.686   0.922   0.721 -0.0466  0.2788 -0.0054
    1DMC     C2 2042   3.648   0.828   0.786  0.1493  0.2514  0.0723
    1DMC     O3 2043   3.632   0.822   0.919  0.2278  0.3080  0.0846
    1DMC     O4 2044   3.677   0.703   0.746  0.0924  0.3622 -0.3223
    1DMC     C5 2045   3.643   0.950   0.976 -0.0742  0.0876  0.6458
    1DMC     C6 2046   3.759   0.685   0.632  0.1951  0.4394 -0.2612
    1DMC     O1 2047   1.313   2.358   3.076  0.5878  0.6484 -0.0488
    1DMC     C2 2048   1.348   2.337   3.189 -0.5416  0.0802  0.2086
    1DMC     O3 2049   1.310   2.396   3.304  0.2123  1.0266 -0.0156
    1DMC     O4 2050   1.398   2.218   3.225 -0.4262  0.2741  0.6997
    1DMC     C5 2051   1.211   2.486   3.261 -0.0099  0.5781 -0.4439
    1DMC     C6 2052   1.445   2.139   3.118 -0.0068  0.7310  0.5380
    1DMC     O1 2053   3.904   1.343   1.981  0.1180  0.1075 -0.1870
    1DMC     C2 2054   4.000   1.279   1.945  0.4285  0.3807  0.1440
    1DMC     O3 2055   4.081   1.313   1.844  0.4798  0.1766  0.1177
    1DMC     O4 2056   4.077   1.201   2.023  0.7532  0.6474  0.0911
    1DMC     C5 2057   4.028   1.414   1.761  0.3839 -0.0966 -0.1596
    1DMC     C6 2058   4.013   1.187   2.148 -0.0217  0.1098 -0.3608
    1DMC     O1 2059   1.184   3.287   2.897  0.1985  1.0376 -0.1740
    1DMC     C2 2060   1.275   3.214   2.870 -0.5168 -0.0804  0.3626
    1DMC     O3 2061   1.276   3.145   2.754 -0.0590  0.0039  0.3168
    1DMC     O4 2062   1.385   3.188   2.942 -0.7348 -1.1089  0.3469
    1DMC     C5 2063   1.160   3.172   2.680  0.4124  1.0858 -0.0438
    1DMC     C6 2064   1.399   3.260   3.063 -0.5788 -0.2552 -0.1683
    1DMC     O1 2065   3.332   3.746   0.941  0.2926 -0.1363 -0.7288
    1DMC     C2 2066   3.417   3.777   1.020  0.0870 -0.0895 -0.5266
    1DMC     O3 2067   3.416   3.736   1.148 -0.5030 -0.3045 -0.5953
    1DMC     O4 2068   3.523   3.854   0.989  0.1006  0.2494  0.3374
    1DMC     C5 2069   3.302   3.670   1.196 -0.1476 -0.4517  0.0609
    1DMC     C6 2070   3.522   3.886   0.852 -0.0694  0.1676  0.3187
    1DMC     O1 2071   2.383   2.350   0.130  0.5241 -0.2429 -0.3652
    1DMC     C2 2072   2.441   2.283   0.210  0.0064 -0.6711 -0.3459
    1DMC     O3 2073   2.388   2.185   0.286 -0.0090 -0.1741  0.2925
    1DMC     O4 2074   2.574   2.301   0.221 -0.0845 -0.3098  0.1872
    1DMC     C5 2075   2.265   2.130   0.242 -0.0287  0.0784  0.0235
    1DMC     C6 2076   2.617   2.384   0.116 -0.1800 -0.2649  0.1838
    1DMC     O1 2077   1.749   3.380   0.881  0.2757  0.1668 -0.2487
    1DMC     C2 2078   1.802   3.341   0.981  0.4316 -0.1039 -0.4347
    1DMC     O3 2079   1.934   3.348   1.009  0.3392 -0.4213  0.0963
    1DMC     O4 2080   1.752   3.251   1.068  0.1976  0.3695 -0.0749
    1DMC     C5 2081   2.016   3.429   0.928 -0.1678 -0.0456 -0.0450
    1DMC     C6 2082   1.636   3.182   1.028  0.5223  0.1027 -0.5636
    1DMC     O1 2083   1.384   0.292   1.309 -0.4243 -0.5446  0.2562
    1DMC     C2 2084   1.475   0.289   1.387 -0.0773  0.1035 -0.1100
    1DMC     O3 2085   1.446   0.290   1.519  0.0726  0.7093 -0.0780
    1DMC     O4 2086   1.602   0.261   1.355 -0.0746 -0.4010  0.3223
    1DMC     C5 2087   1.310   0.294   1.552  0.0360  0.6697 -0.2231
    1DMC     C6 2088   1.622   0.237   1.217  0.0826  0.6120  0.1622
    1DMC     O1 2089   0.196   1.306   2.594  0.0169  0.5597  0.2206
    1DMC     C2 2090   0.146   1.246   2.685  0.2993  0.2180  0.1539
    1DMC     O3 2091   0.211   1.213   2.797  0.4697 -0.1763 -0.0592
    1DMC     O4 2092   0.019   1.201   2.691  0.2038  0.4617 -0.0390
    1DMC     C5 2093   0.346   1.251   2.787  0.1910  0.7284 -0.3930
    1DMC     C6 2094  -0.044   1.204   2.565 -0.2961  0.2730  0.2047
    1DMC     O1 2095   2.655   0.619   0.533 -0.3033  0.3863  0.0777
    1DMC     C2 2096   2.586   0.649   0.627 -0.1247  0.7740  0.0880
    1DMC     O3 2097   2.457   0.617   0.646 -0.1708  0.2765 -0.9769
    1DMC     O4 2098   2.631   0.708   0.739 -0.3321  0.3900  0.3764
    1DMC     C5 2099   2.398   0.539   0.545 -0.2603 -0.2392 -0.5322
    1DMC     C6 2100   2.768   0.744   0.731 -0.2790 -0.0171 -0.8743
    1DMC     O1 2101   3.389   0.556   0.167 -0.1161 -0.3058  0.0644
    1DMC     C2 2102   3.350   0.492   0.262 -0.0572  0.2006  0.4326
    1DMC     O3 2103   3.242   0.413   0.254  0.0143  0.1292  0.1267
    1DMC     O4 2104   3.434   0.443   0.354  0.2183  0.2984  0.2362
    1DMC     C5 2105   3.147   0.447   0.156  0.3130  0.4742 -0.0465
    1DMC     C6 2106   3.562   0.501   0.342  0.3905 -0.1909 -0.3758
    1DMC     O1 2107   3.117   0.143   0.108 -0.1431 -0.1436 -0.4667
    1DMC     C2 2108   3.158   0.035   0.076 -0.4119 -0.3027 -0.2807
    1DMC     O3 2109   3.176  -0.068   0.160  0.2583  0.0115 -0.0275
    1DMC     O4 2110   3.197   0.007  -0.049  1.0043  0.1320  0.0443
    1DMC     C5 2111   3.166  -0.033   0.296 -0.5888 -0.3523  0.0119
    1DMC     C6 2112   3.182   0.122  -0.130 -0.3995 -0.0184  0.0690
    1DMC     O1 2113   3.720   1.863   1.448 -0.3709 -0.1271  0.2251
    1DMC     C2 2114   3.821   1.861   1.512 -0.4655  0.0945  0.3795
    1DMC     O3 2115   3.825   1.914   1.636  0.7720 -0.0356  0.4110
    1DMC     O4 2116   3.933   1.791   1.491 -0.6033  0.0059 -0.0578
    1DMC     C5 2117   3.693   1.947   1.674  1.0427  0.4638  0.9315
    1DMC     C6 2118   3.922   1.703   1.381 -0.0736  0.1233 -0.2104
    1DMC     O1 2119   2.461   1.022   3.200 -0.2096 -0.1680  0.2169
    1DMC     C2 2120   2.403   1.077   3.289 -0.4144  0.2615 -0.1753
    1DMC     O3 2121   2.439   1.205   3.314  0.0022  0.1663 -0.2818
    1DMC     O4 2122   2.300   1.040   3.367 -0.6679  0.5802 -0.3554
    1DMC     C5 2123   2.548   1.240   3.232  0.1423 -0.4626 -0.3725
    1DMC     C6 2124   2.273   0.902   3.368  0.3148  0.3850 -0.0812
    1DMC     O1 2125   2.737   1.880   3.390  0.6636  0.4052 -0.2025
    1DMC     C2 2126   2.714   1.996   3.411 -0.2039  0.2294 -0.1484
    1DMC     O3 2127   2.798   2.099   3.394 -0.0600  0.0604 -0.4611
    1DMC     O4 2128   2.587   2.039   3.404 -0.1422  0.3492 -0.5564
    1DMC     C5 2129   2.929   2.060   3.358 -0.1877 -0.5234 -0.3074
    1DMC     C6 2130   2.496   1.932   3.390  0.3448 -0.0533 -0.6381
    1DMC     O1 2131   2.948   3.888   2.574 -0.4070 -0.6719  0.3841
    1DMC     C2 2132   2.877   3.978   2.610  0.6602  0.2076  0.3667
    1DMC     O3 2133   2.763   3.955   2.678  0.1512 -0.1471 -0.5853
    1DMC     O4 2134   2.889   4.107   2.577  0.0988  0.1401 -0.1226
    1DMC     C5 2135   2.755   3.817   2.701 -0.0607  0.0007  0.2739
    1DMC     C6 2136   2.997   4.124   2.489  0.1316  0.0950 -0.0905
    1DMC     O1 2137   1.087   1.058   0.270  0.0471 -0.1273  0.1490
    1DMC     C2 2138   0.982   1.011   0.236 -0.0123  0.0211  0.1246
    1DMC     O3 2139   0.956   0.891   0.182 -0.3395  0.2363 -0.2021
    1DMC     O4 2140   0.867   1.081   0.233  0.2247  0.3892 -0.9804
    1DMC     C5 2141   1.058   0.795   0.200 -0.4658  0.2626  0.6990
    1DMC     C6 2142   0.870   1.201   0.307 -0.0351 -0.2168  0.0495
    1DMC     O1 2143   1.991   0.930   3.450  0.0516 -0.4804 -0.0633
    1DMC     C2 2144   1.886   0.983   3.473  0.3073  0.0221 -0.0422
    1DMC     O3 2145   1.797   0.934   3.561 -0.1097  0.2544 -0.3321
    1DMC     O4 2146   1.837   1.077   3.391 -0.3435 -0.4223 -0.1752
    1DMC     C5 2147   1.848   0.823   3.632  0.1165  0.3776 -0.3021
    1DMC     C6 2148   1.919   1.107   3.280 -0.4406 -0.5622 -0.2842
    1DMC     O1 2149   2.856   1.135   3.413  0.3262  0.2511 -0.1391
    1DMC     C2 2150   2.786   1.071   3.488  0.0566  0.1521 -0.4739
    1DMC     O3 2151   2.687   1.133   3.555  0.1442 -0.3464  0.1266
    1DMC     O4 2152   2.766   0.939   3.480 -0.6316  0.2576 -0.5093
    1DMC     C5 2153   2.708   1.267   3.592 -0.1505 -0.1135 -0.5232
    1DMC     C6 2154   2.839   0.876   3.377 -0.1413 -0.1364  0.0764
    1DMC     O1 2155   0.234   3.394   2.794 -0.0084  0.1042 -0.1306
    1DMC     C2 2156   0.215   3.473   2.882 -0.1184  0.1356 -0.1817
    1DMC     O3 2157   0.233   3.455   3.014 -0.2112 -0.3352 -0.2314
    1DMC     O4 2158   0.185   3.600   2.850  0.2530  0.3012  0.1060
    1DMC     C5 2159   0.277   3.326   3.050 -0.0391 -0.3394 -0.4589
    1DMC     C6 2160   0.184   3.610   2.709  0.3680  0.2503  0.1016
    1DMC     O1 2161   2.410   1.961   0.019  0.2107 -0.3464 -0.1466
    1DMC     C2 2162   2.354   1.959  -0.087  0.3287 -0.2566 -0.2097
    1DMC     O3 2163   2.378   2.041  -0.191 -0.1858 -0.0422 -0.1632
    1DMC     O4 2164   2.272   1.860  -0.125 -0.1783  0.0375  0.1028
    1DMC     C5 2165   2.462   2.150  -0.161 -0.6294  0.1413  0.4045
    1DMC     C6 2166   2.253   1.759  -0.029  0.4436 -0.1498  0.0376
    1DMC     O1 2167   3.699   1.785   3.712  0.3398  0.2643  0.0854
    1DMC     C2 2168   3.683   1.732   3.606  0.2608  0.1299  0.1645
    1DMC     O3 2169   3.776   1.735   3.509 -0.3823 -0.3833 -0.4810
    1DMC     O4 2170   3.565   1.694   3.554  0.1838  0.0518  0.3949
    1DMC     C5 2171   3.893   1.798   3.556 -0.7858  0.1950 -0.2481
    1DMC     C6 2172   3.447   1.678   3.630 -0.2831 -0.5367 -0.4293
    1DMC     O1 2173   1.739   3.113   2.423 -0.2120 -0.0070 -0.4629
    1DMC     C2 2174   1.806   3.171   2.504  0.1135 -0.9243 -0.0560
    1DMC     O3 2175   1.764   3.222   2.621  0.1328 -0.0542 -0.4207
    1DMC     O4 2176   1.935   3.201   2.482 -0.0207 -0.2064  0.0834
    1DMC     C5 2177   1.646   3.156   2.662  0.5686 -0.4744  0.1737
    1DMC     C6 2178   1.972   3.150   2.355 -0.2117 -0.3766  0.0950
    1DMC     O1 2179   2.353   3.031   1.640  0.5130 -0.0002  0.4904
    1DMC     C2 2180   2.304   2.932   1.688 -0.7026  0.4866  0.2809
    1DMC     O3 2181   2.214   2.853   1.626 -0.1626 -0.0874  0.2252
    1DMC     O4 2182   2.358   2.863   1.790 -1.0191  1.1012  0.8715
    1DMC     C5 2183   2.161   2.919   1.514 -0.3532 -0.5371  0.0497
    1DMC     C6 2184   2.488   2.905   1.826 -0.4062  0.0536 -0.0723
    1DMC     O1 2185   1.792   3.779   2.249  0.3658 -0.2084 -0.1905
    1DMC     C2 2186   1.835   3.748   2.356  0.3308 -0.1134 -0.1483
    1DMC     O3 2187   1.831   3.621   2.402  0.4224  0.1102  0.4918
    1DMC     O4 2188   1.906   3.830   2.436 -0.0610  0.1152 -0.0308
    1DMC     C5 2189   1.785   3.519   2.316  0.1730  0.7328 -0.1238
    1DMC     C6 2190   1.930   3.964   2.402  0.5141 -0.1053 -0.5257
    1DMC     O1 2191   3.091   0.698   0.642 -0.3626  0.5407 -0.6736
    1DMC     C2 2192   3.150   0.598   0.608 -0.5145  0.3711 -0.4418
    1DMC     O3 2193   3.274   0.600   0.556 -0.2878 -0.3354  0.0612
    1DMC     O4 2194   3.106   0.471   0.612 -0.6863  0.4534  0.5346
    1DMC     C5 2195   3.330   0.729   0.567 -0.4521 -0.2516 -0.0725
    1DMC     C6 2196   2.966   0.454   0.615 -0.5956 -0.4703 -0.3569
    1DMC     O1 2197   3.740   3.965   2.294 -0.2866  0.2814 -0.1788
    1DMC     C2 2198   3.624   3.947   2.317 -0.2481 -0.0035 -0.2075
    1DMC     O3 2199   3.544   4.049   2.353 -0.4194 -0.3379  0.3674
    1DMC     O4 2200   3.566   3.826   2.328  0.2084 -0.2049  0.0156
    1DMC     C5 2201   3.634   4.158   2.356 -0.3980 -0.3187 -0.6661
    1DMC     C6 2202   3.649   3.715   2.353 -0.3554 -0.4957  0.6203
    1DMC     O1 2203   3.403   1.141   1.981  0.0290  0.0129 -0.6843
    1DMC     C2 2204   3.299   1.161   1.924 -0.1231 -0.0273 -0.4240
    1DMC     O3 2205   3.200   1.209   2.001  0.4591  0.5304 -0.0057
    1DMC     O4 2206   3.259   1.078   1.826 -0.2647 -0.0678 -0.3314
    1DMC     C5 2207   3.246   1.256   2.125 -0.1116  0.4119  0.2574
    1DMC     C6 2208   3.355   0.980   1.797 -0.0574  0.1011 -0.2202
    1DMC     O1 2209   2.758   0.724   1.772 -0.0094  0.2173  0.0976
    1DMC     C2 2210   2.842   0.793   1.822  0.2279  0.0947 -0.1303
    1DMC     O3 2211   2.844   0.833   1.950 -0.4604  0.2445 -0.1630
    1DMC     O4 2212   2.957   0.831   1.763  0.0402  0.4826 -0.2453
    1DMC     C5 2213   2.725   0.805   2.020 -0.4488 -0.1045 -0.2843
    1DMC     C6 2214   2.984   0.744   1.655  0.2433 -0.2315  0.3780
    1DMC     O1 2215   0.604   0.877   1.401 -0.2505 -0.3465 -0.1255
    1DMC     C2 2216   0.701   0.852   1.335 -0.3097 -0.1146 -0.3023
    1DMC     O3 2217   0.826   0.897   1.358 -0.3192 -0.2676  0.0476
    1DMC     O4 2218   0.698   0.763   1.234  0.7072 -0.2185 -0.2534
    1DMC     C5 2219   0.838   0.968   1.479 -0.9585  0.6534 -0.4185
    1DMC     C6 2220   0.565   0.717   1.225  0.5789  0.1173 -0.1003
    1DMC     O1 2221   1.444   1.081   0.969  0.3373 -0.2663  0.2909
    1DMC     C2 2222   1.547   1.138   0.947  0.4372 -0.2592  0.7774
    1DMC     O3 2223   1.555   1.272   0.939 -0.1805 -0.2757 -0.2339
    1DMC     O4 2224   1.666   1.080   0.920  0.4684 -0.0838  0.5347
    1DMC     C5 2225   1.431   1.330   0.977 -0.3180 -0.7397  0.0387
    1DMC     C6 2226   1.645   0.941   0.922  0.4437 -0.0823  0.3611
    1DMC     O1 2227   1.330   0.473   3.911  0.4528 -0.0000  0.7591
    1DMC     C2 2228   1.244   0.510   3.986 -0.1857 -0.5195  0.2874
    1DMC     O3 2229   1.116   0.526   3.946 -0.0112 -0.2366 -0.1593
    1DMC     O4 2230   1.273   0.586   4.092  0.0920 -0.4448  0.1584
    1DMC     C5 2231   1.098   0.478   3.815 -0.1449 -0.4315 -0.0690
    1DMC     C6 2232   1.412   0.602   4.109  0.0547 -0.3598  0.3949
    1DMC     O1 2233   1.168   3.075   2.374  0.3368 -0.2950  0.0180
    1DMC     C2 2234   1.223   3.092   2.268 -0.1011 -0.4151 -0.2346
    1DMC     O3 2235   1.167   3.066   2.149 -0.2156 -0.0810 -0.2545
    1DMC     O4 2236   1.352   3.123   2.248 -0.0815  0.0234  0.5236
    1DMC     C5 2237   1.039   3.009   2.160 -0.5167  0.6350 -0.0052
    1DMC     C6 2238   1.412   3.157   2.372  0.0498  0.3791  0.3648
    1DMC     O1 2239   1.557   3.208   1.958  0.4599  0.2014  0.1295
    1DMC     C2 2240   1.654   3.154   1.912 -0.1705 -0.2852 -0.6700
    1DMC     O3 2241   1.715   3.054   1.978 -0.1289  0.3234  0.2414
    1DMC     O4 2242   1.726   3.204   1.810  0.3733  0.0933 -0.1098
    1DMC     C5 2243   1.656   3.035   2.105  0.4363  0.1514  0.4833
    1DMC     C6 2244   1.682   3.326   1.756  0.4721  0.0660 -0.2511
    1DMC     O1 2245   1.807   1.405   2.753 -1.0429 -0.1253 -0.5421
    1DMC     C2 2246   1.763   1.443   2.858 -0.2750 -0.1261 -0.2085
    1DMC     O3 2247   1.792   1.561   2.915  0.2245 -0.0487 -0.6179
    1DMC     O4 2248   1.743   1.348   2.951  0.2785  0.2928  0.3414
    1DMC     C5 2249   1.871   1.639   2.829  0.4376  0.3689 -0.0487
    1DMC     C6 2250   1.760   1.220   2.894  0.4574  0.3755  0.2095
    1DMC     O1 2251   0.869   1.422   0.558  0.2020  0.4054 -0.1406
    1DMC     C2 2252   0.819   1.531   0.569 -0.4525  0.0691  0.3049
    1DMC     O3 2253   0.770   1.609   0.472  0.0186  0.1489  0.1294
    1DMC     O4 2254   0.808   1.592   0.689  0.3018  0.1721  0.3292
    1DMC     C5 2255   0.773   1.554   0.342  0.0043  0.4203  0.0121
    1DMC     C6 2256   0.874   1.517   0.788 -0.2117 -0.0352  0.5199
    1DMC     O1 2257   0.250   2.369   0.731 -0.0649 -0.1195 -0.5945
    1DMC     C2 2258   0.242   2.485   0.701  0.2744 -0.0234 -0.3214
    1DMC     O3 2259   0.124   2.547   0.679  0.2143 -0.0053  0.0501
    1DMC     O4 2260   0.349   2.565   0.685  0.4334 -0.2562 -0.4324
    1DMC     C5 2261   0.024   2.453   0.711  0.2604 -0.2137 -0.4132
    1DMC     C6 2262   0.469   2.493   0.697  0.3880 -0.2076  0.3550
    1DMC     O1 2263   3.202   3.832   3.171 -0.4443  0.2070  0.4908
    1DMC     C2 2264   3.136   3.770   3.093 -0.2545 -0.2068  0.6602
    1DMC     O3 2265   3.076   3.826   2.986  0.5509 -0.3348  0.1347
    1DMC     O4 2266   3.102   3.640   3.100  0.0199 -0.3339 -0.2580
    1DMC     C5 2267   3.073   3.967   2.979 -0.5636 -0.3833 -0.5843
    1DMC     C6 2268   3.144   3.570   3.215 -0.1894  0.0789  0.0686
    1DMC     O1 2269   1.296   2.602   2.749  0.6130 -0.4256 -0.2855
    1DMC     C2 2270   1.201   2.572   2.682  0.6090 -0.2383 -0.3645
    1DMC     O3 2271   1.146   2.657   2.593 -0.6132 -0.1280  0.4682
    1DMC     O4 2272   1.162   2.444   2.667 -0.8616  0.1086  0.2347
    1DMC     C5 2273   1.185   2.788   2.624 -0.1471 -0.0934 -0.2491
    1DMC     C6 2274   1.246   2.349   2.729 -0.5486  0.2272 -0.0017
    1DMC     O1 2275   2.418   1.299   0.996  0.1025 -0.1679 -0.5332
    1DMC     C2 2276   2.308   1.333   1.027  0.0859 -0.3151 -0.4278
    1DMC     O3 2277   2.242   1.442   0.984 -0.0107 -0.3779 -0.4404
    1DMC     O4 2278   2.231   1.285   1.126  0.6458 -0.2555  0.0398
    1DMC     C5 2279   2.294   1.507   0.870 -0.6129  0.0040 -0.5050
    1DMC     C6 2280   2.299   1.183   1.196  0.3208 -0.2968  0.2960
    1DMC     O1 2281   0.953   0.530   2.921 -0.1354  0.1323 -0.0815
    1DMC     C2 2282   0.849   0.562   2.973 -0.1280 -0.2267  0.1615
    1DMC     O3 2283   0.749   0.478   3.004 -0.3113 -0.0644  0.0192
    1DMC     O4 2284   0.835   0.677   3.041  0.4447  0.0443 -0.1652
    1DMC     C5 2285   0.772   0.340   2.986 -0.4939 -0.0847 -0.0608
    1DMC     C6 2286   0.942   0.766   3.022  0.2067  0.3204 -0.2128
    1DMC     O1 2287   0.916   2.783   2.906  0.2049  0.0398 -0.4493
    1DMC     C2 2288   0.825   2.715   2.867 -0.0835  0.0693  0.1556
    1DMC     O3 2289   0.823   2.582   2.848 -0.2419 -0.0051  0.6712
    1DMC     O4 2290   0.748   2.766   2.770 -0.0714 -0.0896  0.0620
    1DMC     C5 2291   0.935   2.511   2.895  0.3026 -0.0568 -0.6594
    1DMC     C6 2292   0.780   2.899   2.740  0.5218 -0.1156  0.5586
    1DMC     O1 2293   3.313   2.337   1.111 -0.4440 -0.6250  0.7474
    1DMC     C2 2294   3.335   2.423   1.192  0.2427 -0.2091  0.1294
    1DMC     O3 2295   3.372   2.549   1.164  0.4772 -0.2044  0.4575
    1DMC     O4 2296   3.263   2.428   1.305 -0.0331 -0.2117 -0.0433
    1DMC     C5 2297   3.351   2.563   1.025  0.4010  0.4340  0.5320
    1DMC     C6 2298   3.190   2.309   1.325  0.0960 -0.2514  0.1998
    1DMC     O1 2299   0.540   0.505   1.613 -0.0059 -0.0164  0.0942
    1DMC     C2 2300   0.636   0.540   1.550  0.1393 -0.3637  0.1175
    1DMC     O3 2301   0.652   0.494   1.425 -0.3858  0.1486 -0.1429
    1DMC     O4 2302   0.713   0.645   1.585 -0.3798 -0.1537  0.6564
    1DMC     C5 2303   0.552   0.399   1.393  0.1996 -0.3538 -0.4865
    1DMC     C6 2304   0.637   0.724   1.674 -0.1321 -0.1039  0.8221
    1DMC     O1 2305   1.217   3.458   3.607  0.2708 -0.1437  0.2516
    1DMC     C2 2306   1.100   3.438   3.589  0.1654  0.1778  0.5621
    1DMC     O3 2307   1.038   3.331   3.643  0.0692  0.0642  0.2296
    1DMC     O4 2308   1.013   3.512   3.518  0.4795  0.1324  0.1285
    1DMC     C5 2309   1.128   3.247   3.711 -0.1427 -0.2094  0.1705
    1DMC     C6 2310   1.067   3.634   3.475 -0.1679  0.3397 -0.1126
    1DMC     O1 2311   0.119   1.847   0.114 -0.0837  0.5197 -0.0442
    1DMC     C2 2312   0.012   1.830   0.063 -0.0365 -0.0547  0.0458
    1DMC     O3 2313  -0.008   1.764  -0.052 -0.4074 -0.3896  0.3004
    1DMC     O4 2314  -0.093   1.894   0.116  0.0874 -0.2112  0.4807
    1DMC     C5 2315   0.114   1.769  -0.122 -0.4786 -0.3026  0.1801
    1DMC     C6 2316  -0.046   1.989   0.210 -0.1719  0.4436 -0.0395
    1DMC     O1 2317   0.301   0.721   2.210 -0.1305  0.0829 -0.0623
    1DMC     C2 2318   0.279   0.747   2.095  0.5215 -0.4330 -0.3130
    1DMC     O3 2319   0.355   0.837   2.030 -0.1683  0.0858 -0.4088
    1DMC     O4 2320   0.151   0.746   2.053  0.3063 -0.2738  0.3243
    1DMC     C5 2321   0.485   0.858   2.082 -0.2514  0.3352 -0.2973
    1DMC     C6 2322   0.068   0.731   2.165  0.2340  0.1506  0.3291
    1DMC     O1 2323   1.826   0.210   3.630  0.3933  0.4529 -0.0779
    1DMC     C2 2324   1.736   0.176   3.701  0.1647  0.8240 -0.1882
    1DMC     O3 2325   1.623   0.247   3.707 -0.0660  0.4158  0.4496
    1DMC     O4 2326   1.727   0.070   3.784 -0.0017  0.9110 -0.0951
    1DMC     C5 2327   1.628   0.363   3.627 -0.7550  0.2022  0.0920
    1DMC     C6 2328   1.833  -0.022   3.782 -0.3574  0.4844  0.3863
    1DMC     O1 2329   0.194   3.371   1.325  0.3237 -0.0428 -0.0544
    1DMC     C2 2330   0.144   3.263   1.339  0.1122 -0.0122 -0.5856
    1DMC     O3 2331   0.227   3.157   1.336  0.2441  0.0620  0.2190
    1DMC     O4 2332   0.034   3.238   1.412  0.3083 -0.0211 -0.2939
    1DMC     C5 2333   0.364   3.178   1.308  0.2189  0.3363  0.2989
    1DMC     C6 2334  -0.035   3.340   1.481 -0.1197 -0.3867 -0.1783
    1DMC     O1 2335   2.225   2.867   3.821  0.1136 -0.0845 -0.1349
    1DMC     C2 2336   2.207   2.950   3.906  0.1496 -0.4461  0.2286
    1DMC     O3 2337   2.271   3.068   3.910 -0.4426 -0.1296  0.4886
    1DMC     O4 2338   2.096   2.955   3.981 -0.2249  0.2190 -0.3537
    1DMC     C5 2339   2.356   3.087   3.799 -0.3517  0.0290  0.5850
    1DMC     C6 2340   2.046   2.824   3.994  0.1128  0.1193 -0.0335
    1DMC     O1 2341   1.535   3.079   0.763  0.1799  0.0992 -0.4209
    1DMC     C2 2342   1.514   3.024   0.659  0.4538 -0.2355 -0.3013
    1DMC     O3 2343   1.430   3.070   0.564 -0.4921 -0.0101  0.6232
    1DMC     O4 2344   1.583   2.917   0.615  0.4082 -0.1954 -0.4716
    1DMC     C5 2345   1.403   3.208   0.571  0.2505  0.2034 -0.5192
    1DMC     C6 2346   1.669   2.864   0.714  0.0303 -0.1567 -0.1172
    1DMC     O1 2347   3.415   1.776   2.059 -0.3216  0.1124  0.2040
    1DMC     C2 2348   3.326   1.719   2.116 -0.4511  0.0211 -0.0898
    1DMC     O3 2349   3.279   1.600   2.075 -0.3322 -0.2133  0.4504
    1DMC     O4 2350   3.286   1.742   2.242  0.3320 -0.2603  0.2089
    1DMC     C5 2351   3.305   1.582   1.938 -0.0891 -0.7507  0.5668
    1DMC     C6 2352   3.358   1.843   2.309 -0.2171  0.1578  0.1682
    1DMC     O1 2353   3.600   2.517   2.658  0.0872  0.1132  0.1669
    1DMC     C2 2354   3.693   2.443   2.678  0.0079  0.0426  0.2775
    1DMC     O3 2355   3.688   2.309   2.686 -0.2468  0.0442  0.1648
    1DMC     O4 2356   3.818   2.487   2.702  0.1632 -0.0151 -0.3876
    1DMC     C5 2357   3.569   2.236   2.676  0.0347 -0.3294 -0.4774
    1DMC     C6 2358   3.841   2.625   2.683 -0.4873  0.0491 -0.7201
    1DMC     O1 2359   2.061   1.670   3.143 -0.0747  0.1601  0.5414
    1DMC     C2 2360   2.175   1.651   3.111 -0.2478  0.1082 -0.0528
    1DMC     O3 2361   2.232   1.531   3.091 -0.2904  0.0707  0.0523
    1DMC     O4 2362   2.245   1.755   3.060 -0.0645 -0.0132 -0.0486
    1DMC     C5 2363   2.146   1.420   3.105  0.0956 -0.1727  0.5044
    1DMC     C6 2364   2.187   1.876   3.103  0.0011  0.0119 -0.0314
    1DMC     O1 2365   2.944   3.484   2.655  0.4835 -0.1059  0.7491
    1DMC     C2 2366   3.017   3.515   2.565 -0.3788  0.2455  0.1571
    1DMC     O3 2367   2.973   3.532   2.439 -0.6313 -0.4196  0.1458
    1DMC     O4 2368   3.131   3.581   2.590 -0.1153 -0.1691  0.0577
    1DMC     C5 2369   2.833   3.520   2.426 -0.6507  0.1053 -0.1513
    1DMC     C6 2370   3.145   3.592   2.730 -0.7990  0.0638  0.1130
    1DMC     O1 2371   2.335   0.586   1.649 -0.5502 -0.1003 -0.2359
    1DMC     C2 2372   2.317   0.468   1.655  0.3312 -0.2479 -0.3059
    1DMC     O3 2373   2.363   0.384   1.750 -0.6121 -0.4743 -0.0295
    1DMC     O4 2374   2.215   0.404   1.596 -0.2493 -0.2652  0.6831
    1DMC     C5 2375   2.473   0.443   1.817 -0.5064 -0.2790 -0.3684
    1DMC     C6 2376   2.122   0.483   1.526 -0.1687 -0.2050  0.6440
    1DMC     O1 2377   2.707   0.399   1.477 -0.1131 -0.3141 -0.4734
    1DMC     C2 2378   2.735   0.287   1.445  0.3209 -0.3299 -0.0568
    1DMC     O3 2379   2.802   0.203   1.527  0.3186 -0.2120  0.0658
    1DMC     O4 2380   2.733   0.236   1.321  0.6407  0.1072 -0.2468
    1DMC     C5 2381   2.827   0.263   1.652  0.1481  0.1725 -0.0826
    1DMC     C6 2382   2.669   0.313   1.221 -0.1097  0.0787  0.2039
    1DMC     O1 2383   1.252   3.515   0.603  0.0818  0.4355 -0.3717
    1DMC     C2 2384   1.151   3.570   0.639  0.0118  0.3218 -0.3899
    1DMC     O3 2385   1.029   3.539   0.594  0.0613 -0.3388 -0.0642
    1DMC     O4 2386   1.155   3.691   0.698  0.0737  0.1161  0.0299
    1DMC     C5 2387   1.020   3.411   0.534  0.5656 -0.3177 -0.1872
    1DMC     C6 2388   1.286   3.744   0.704  0.0712  0.1135  0.1130
    1DMC     O1 2389   1.096   2.610   1.516 -0.0371  0.2376  0.2444
    1DMC     C2 2390   1.021   2.688   1.465 -0.1647 -0.0363  0.0148
    1DMC     O3 2391   1.053   2.798   1.394  0.0274 -0.1169 -0.0226
    1DMC     O4 2392   0.889   2.670   1.442  0.0213 -0.6953 -0.5825
    1DMC     C5 2393   1.191   2.829   1.389  0.0127 -0.0706 -0.1206
    1DMC     C6 2394   0.837   2.558   1.509  0.0010 -0.2561  0.1521
    1DMC     O1 2395   2.533   1.479   2.376  0.2480  0.2588  0.5707
    1DMC     C2 2396   2.639   1.491   2.320 -0.3190 -0.1621 -0.6142
    1DMC     O3 2397   2.667   1.585   2.228 -0.0626  0.3705 -0.0009
    1DMC     O4 2398   2.744   1.410   2.337 -0.2794  0.0130 -0.0227
    1DMC     C5 2399   2.562   1.667   2.182 -0.1725  0.4155  0.3259
    1DMC     C6 2400   2.705   1.303   2.420 -0.2736 -0.1769 -0.2660
    1DMC     O1 2401   2.227   2.429   2.110 -0.2276  0.1226 -0.4288
    1DMC     C2 2402   2.306   2.347   2.072 -0.6075 -0.8040  0.7279
    1DMC     O3 2403   2.276   2.252   1.981 -0.5702 -0.1896  0.0672
    1DMC     O4 2404   2.417   2.322   2.144 -0.1864  0.3357  0.4842
    1DMC     C5 2405   2.150   2.262   1.917 -0.1057  0.1947 -0.8010
    1DMC     C6 2406   2.438   2.411   2.251  0.1485  0.1536  0.5714
    1DMC     O1 2407   0.743   1.680   1.120  0.4227  0.1956  0.0800
    1DMC     C2 2408   0.755   1.763   1.206  0.1804  0.2198  0.0929
    1DMC     O3 2409   0.721   1.736   1.334 -0.1462 -0.0578 -0.0516
    1DMC     O4 2410   0.769   1.895   1.187  0.0007  0.2228 -0.0125
    1DMC     C5 2411   0.659   1.610   1.343  0.2173 -0.2743 -0.4956
    1DMC     C6 2412   0.802   1.915   1.052 -0.3268 -0.1776 -0.1531
    1DMC     O1 2413   1.323   1.846   1.069  0.0368  0.0150 -0.6665
    1DMC     C2 2414   1.344   1.729   1.081  0.3056  0.1077 -0.1901
    1DMC     O3 2415   1.250   1.633   1.073  0.1733  0.1593  0.6391
    1DMC     O4 2416   1.456   1.662   1.113  0.1796  0.1190  0.2898
    1DMC     C5 2417   1.120   1.687   1.055  0.0465 -0.0841  0.8322
    1DMC     C6 2418   1.570   1.744   1.097  0.1320  0.2416  0.5770
    1DMC     O1 2419   2.503   1.126   3.899  0.3763  0.5863  0.1260
    1DMC     C2 2420   2.512   1.146   4.017 -0.3135  0.4720  0.2003
    1DMC     O3 2421   2.442   1.083   4.113 -0.2802  0.2547  0.0822
    1DMC     O4 2422   2.565   1.254   4.077  0.0308  0.3671  0.0826
    1DMC     C5 2423   2.370   0.968   4.075 -0.1003  0.0291  0.4150
    1DMC     C6 2424   2.611   1.347   3.981  0.0712 -0.1585 -0.4138
    1DMC     O1 2425   2.405   3.597   0.276  0.2510 -0.2517  0.2261
    1DMC     C2 2426   2.513   3.638   0.244  0.0429  0.1435  0.0285
    1DMC     O3 2427   2.600   3.559   0.179  0.2529 -0.3013  0.8362
    1DMC     O4 2428   2.574   3.751   0.286 -0.2834  0.4068 -0.1961
    1DMC     C5 2429   2.559   3.424   0.178 -0.2082 -0.1716 -0.7806
    1DMC     C6 2430   2.496   3.831   0.373  0.1467  0.2843  0.3086
    1DMC     O1 2431   3.633   2.855   1.647  0.3156 -0.3785 -0.3386
    1DMC     C2 2432   3.599   2.951   1.584  0.1308 -0.1829  0.0548
    1DMC     O3 2433   3.677   3.031   1.508  0.3272 -0.0771  0.3687
    1DMC     O4 2434   3.484   3.018   1.604  0.1498 -0.0988 -0.1109
    1DMC     C5 2435   3.814   2.997   1.501  0.2247 -0.5979  0.8090
    1DMC     C6 2436   3.418   2.949   1.707  0.8131 -0.1957  0.2563
    1DMC     O1 2437   1.541   3.904   1.037 -0.3394  0.1246 -0.1175
    1DMC     C2 2438   1.527   3.805   1.103  0.0543  0.2257  0.1206
    1DMC     O3 2439   1.578   3.686   1.065 -0.5708  0.0124 -0.0589
    1DMC     O4 2440   1.423   3.776   1.183 -0.2306 -0.2565 -0.4187
    1DMC     C5 2441   1.677   3.707   0.967 -0.3678  0.0961  0.1621
    1DMC     C6 2442   1.343   3.890   1.208 -0.4303 -0.5138  0.1240
    1DMC     O1 2443   2.882   3.603   3.967  0.6487  0.4015  0.2473
    1DMC     C2 2444   2.872   3.527   4.059 -0.4486 -0.0419 -0.2238
    1DMC     O3 2445   2.901   3.564   4.185  0.2030 -0.6548 -0.1820
    1DMC     O4 2446   2.888   3.394   4.043 -0.0610 -0.0171 -0.0614
    1DMC     C5 2447   2.913   3.705   4.185 -0.4825 -0.5841 -0.8375
    1DMC     C6 2448   2.925   3.351   3.914 -0.4888 -0.5756  0.0004
    1DMC     O1 2449   3.244   3.081   0.141  0.2910  0.8382  0.3376
    1DMC     C2 2450   3.185   3.048   0.241 -0.3688  0.0522 -0.2934
    1DMC     O3 2451   3.151   2.925   0.282 -0.1116  0.0979  0.0670
    1DMC     O4 2452   3.097   3.127   0.305  0.0881  0.1471  0.2232
    1DMC     C5 2453   3.220   2.833   0.200  0.5129  0.4832  0.1556
    1DMC     C6 2454   3.114   3.263   0.271 -0.5727  0.0254 -0.6187
    1DMC     O1 2455   1.819   2.254   2.743 -0.2197  0.7188  0.0455
    1DMC     C2 2456   1.818   2.204   2.852  0.1563 -0.0412 -0.2902
    1DMC     O3 2457   1.730   2.240   2.947  0.4871 -0.0519  0.0232
    1DMC     O4 2458   1.881   2.090   2.885  0.0903 -0.0070 -0.0433
    1DMC     C5 2459   1.672   2.362   2.905  0.3910 -0.1589 -0.1556
    1DMC     C6 2460   1.966   2.050   2.780 -0.1697  0.4996 -0.4529
    1DMC     O1 2461   2.683   2.634   2.226  0.7973  0.1841 -0.3555
    1DMC     C2 2462   2.657   2.712   2.138  0.2841  0.3929 -0.0215
    1DMC     O3 2463   2.687   2.692   2.009  0.0215 -0.0458 -0.0146
    1DMC     O4 2464   2.549   2.791   2.149 -0.3208 -0.4201  0.0026
    1DMC     C5 2465   2.792   2.601   1.986 -0.0767 -0.0211 -0.5808
    1DMC     C6 2466   2.510   2.792   2.284 -0.2516  0.1377  0.0228
    1DMC     O1 2467   1.413   2.529   2.232  0.0489 -1.1229 -0.4661
    1DMC     C2 2468   1.295   2.540   2.211 -0.0426 -0.3117  0.4242
    1DMC     O3 2469   1.220   2.442   2.158 -0.2062  0.2241 -0.3384
    1DMC     O4 2470   1.243   2.659   2.180  0.6506 -0.0708  0.1700
    1DMC     C5 2471   1.294   2.322   2.148 -0.3240  0.0832  0.4255
    1DMC     C6 2472   1.335   2.763   2.203  0.5987  0.1128 -0.4355
    1DMC     O1 2473   1.741   2.442   3.707 -0.5847 -0.3159  0.2411
    1DMC     C2 2474   1.633   2.492   3.686 -0.3902 -0.0431 -0.1329
    1DMC     O3 2475   1.592   2.596   3.761  0.1106 -0.0730  0.1920
    1DMC     O4 2476   1.528   2.442   3.618 -0.3646  0.0482 -0.2386
    1DMC     C5 2477   1.689   2.634   3.855  0.5569 -0.1024 -0.2540
    1DMC     C6 2478   1.570   2.338   3.534 -0.2508  0.1639 -0.3260
    1DMC     O1 2479   1.351   1.106   2.505  0.6958 -0.7200  0.3168
    1DMC     C2 2480   1.421   1.186   2.562 -0.1737  0.8887 -0.7741
    1DMC     O3 2481   1.368   1.300   2.608  0.0917  0.5021  0.5250
    1DMC     O4 2482   1.520   1.146   2.644 -0.3349  0.2197 -0.8937
    1DMC     C5 2483   1.230   1.318   2.583 -0.0196 -0.3677  0.4907
    1DMC     C6 2484   1.551   1.010   2.626 -0.2505  0.1131 -0.0060
    1DMC     O1 2485   1.100   1.536   0.180 -0.2201 -0.1345 -0.1436
    1DMC     C2 2486   1.196   1.480   0.225 -0.0918  0.0378 -0.2004
    1DMC     O3 2487   1.261   1.523   0.334 -0.0730  0.4049 -0.3557
    1DMC     O4 2488   1.231   1.354   0.191  0.1085 -0.0921  0.4815
    1DMC     C5 2489   1.216   1.652   0.369 -0.0019  0.3233  0.0440
    1DMC     C6 2490   1.149   1.311   0.084  0.2600  0.7442  0.0236
    1DMC     O1 2491   0.483   2.456   3.947 -0.2789 -0.2861  0.3773
    1DMC     C2 2492   0.526   2.344   3.939  0.2185 -0.0993  0.4094
    1DMC     O3 2493   0.548   2.272   4.051  0.2432 -0.2181  0.3289
    1DMC     O4 2494   0.621   2.313   3.848 -0.0659 -0.1534  0.1298
    1DMC     C5 2495   0.538   2.352   4.167  0.3783  0.2233  0.0392
    1DMC     C6 2496   0.624   2.429   3.769  0.1173  0.0776  0.4730
    1DMC     O1 2497   2.926   2.592   0.315 -0.1091  0.0337  0.0769
    1DMC     C2 2498   2.835   2.660   0.275 -0.3005 -0.1841  0.1391
    1DMC     O3 2499   2.720   2.679   0.342 -0.2187  0.0637  0.2079
    1DMC     O4 2500   2.816   2.706   0.150  0.2031  0.3522  0.2570
    1DMC     C5 2501   2.704   2.590   0.450 -0.0787  0.1369  0.2898
    1DMC     C6 2502   2.930   2.693   0.067  0.2522 -0.0427  0.3824
    1DMC     O1 2503   0.624   1.474   3.036  0.0650  0.1437 -0.6877
    1DMC     C2 2504   0.543   1.532   2.969 -0.2272  0.1161 -0.3620
    1DMC     O3 2505   0.573   1.567   2.843  0.3002  0.3257 -0.1801
    1DMC     O4 2506   0.439   1.598   3.023  0.0963  0.1541  0.2287
    1DMC     C5 2507   0.690   1.499   2.805  0.2238  0.2160 -0.2200
    1DMC     C6 2508   0.399   1.541   3.146 -0.2402 -0.2992 -0.0853
    1DMC     O1 2509   2.467   3.399   2.294  0.3643 -0.4503  0.0878
    1DMC     C2 2510   2.494   3.356   2.186 -0.0218 -0.1504 -0.1315
    1DMC     O3 2511   2.462   3.231   2.149 -0.1092 -0.1712  0.0162
    1DMC     O4 2512   2.548   3.426   2.084 -0.0468  0.1986  0.0947
    1DMC     C5 2513   2.377   3.169   2.244 -0.1777 -0.3955 -0.1919
    1DMC     C6 2514   2.542   3.564   2.112  0.3064  0.1874  0.2340
    1DMC     O1 2515   2.390   3.907   3.954 -0.2472 -0.3509 -0.1765
    1DMC     C2 2516   2.447   3.974   3.873 -0.4353  0.2388  0.1654
    1DMC     O3 2517   2.573   3.941   3.839 -0.3938  0.2569  0.3047
    1DMC     O4 2518   2.404   4.069   3.788 -0.1239  0.1221 -0.1299
    1DMC     C5 2519   2.620   3.813   3.878 -0.4981  0.0938 -0.1006
    1DMC     C6 2520   2.275   4.111   3.826 -0.1923  0.0611 -0.2948
    1DMC     O1 2521   1.288   1.076   1.922 -0.2126 -0.2024  0.7266
    1DMC     C2 2522   1.401   1.115   1.927 -0.2312 -0.0149 -0.1342
    1DMC     O3 2523   1.459   1.156   2.041  0.0413 -0.2811 -0.1775
    1DMC     O4 2524   1.472   1.139   1.815  0.0138 -0.1725 -0.0123
    1DMC     C5 2525   1.396   1.088   2.148  0.2013  0.2135  0.2361
    1DMC     C6 2526   1.391   1.144   1.700  0.0565  0.1176 -0.0282
    1DMC     O1 2527   3.551   3.319   1.321  0.1831  0.2401 -0.1506
    1DMC     C2 2528   3.628   3.328   1.229  0.1460 -0.6096 -0.2715
    1DMC     O3 2529   3.640   3.227   1.140 -0.5957 -0.6452 -0.3425
    1DMC     O4 2530   3.695   3.438   1.192 -0.0095 -0.2129  0.5952
    1DMC     C5 2531   3.566   3.123   1.200 -0.2326 -0.7861 -0.1349
    1DMC     C6 2532   3.643   3.548   1.262  0.1084  0.2952 -0.1016
    1DMC     O1 2533   2.271   2.327   1.027 -0.5948 -0.0559  0.1015
    1DMC     C2 2534   2.285   2.274   1.134 -0.0038 -0.3647 -0.1215
    1DMC     O3 2535   2.307   2.143   1.157  1.1297 -0.1880 -0.1586
    1DMC     O4 2536   2.220   2.318   1.244  0.6313 -0.0045  0.1124
    1DMC     C5 2537   2.307   2.061   1.043  0.0531 -0.0037 -0.3076
    1DMC     C6 2538   2.148   2.437   1.222 -0.2620 -0.4314  0.6912
    1DMC     O1 2539   2.819   2.271   0.498 -0.1229  0.6071 -0.1205
    1DMC     C2 2540   2.929   2.306   0.531  0.1952 -0.2101 -0.3041
    1DMC     O3 2541   2.970   2.326   0.657  0.1675  0.3169 -0.3780
    1DMC     O4 2542   3.031   2.265   0.454  0.3310 -0.4245 -0.0141
    1DMC     C5 2543   2.863   2.341   0.748  0.2446 -0.2378 -0.1902
    1DMC     C6 2544   2.989   2.217   0.328 -0.8806 -0.4748  0.4025
    1DMC     O1 2545   2.750   3.488   0.806  0.2051 -0.1082 -0.3631
    1DMC     C2 2546   2.672   3.578   0.788 -0.0773 -0.2641  0.0412
    1DMC     O3 2547   2.546   3.591   0.831  0.0493 -0.0846  0.3584
    1DMC     O4 2548   2.693   3.673   0.696  0.0036 -0.1507  0.1775
    1DMC     C5 2549   2.492   3.496   0.920 -0.2356  0.2817  0.5773
    1DMC     C6 2550   2.804   3.643   0.613 -0.0354 -0.0544  0.0894
    1DMC     O1 2551   2.543   2.710   3.460  0.1488  0.0721  0.3194
    1DMC     C2 2552   2.547   2.804   3.386 -0.2117 -0.0789  0.1094
    1DMC     O3 2553   2.483   2.922   3.400  0.3441  0.1888  0.3975
    1DMC     O4 2554   2.638   2.815   3.288 -0.4930  0.0200 -0.1440
    1DMC     C5 2555   2.389   2.922   3.505 -1.0140  0.0187 -0.7969
    1DMC     C6 2556   2.703   2.693   3.259 -0.4734 -0.0290  0.1098
    1DMC     O1 2557   3.612   1.202   2.626  0.2576 -0.3393  0.3873
    1DMC     C2 2558   3.560   1.123   2.701  0.0321 -0.3577  0.2110
    1DMC     O3 2559   3.598   0.995   2.715  0.2917 -0.2988  0.0465
    1DMC     O4 2560   3.489   1.162   2.808  0.4027  0.2689  0.2387
    1DMC     C5 2561   3.707   0.938   2.646  0.1553 -0.2868 -0.1799
    1DMC     C6 2562   3.466   1.300   2.824 -0.7508  0.0609  0.4939
    1DMC     O1 2563   3.832   3.003   3.970 -0.4370  0.8306  0.1242
    1DMC     C2 2564   3.818   3.008   4.089  0.0247 -0.4555  0.2499
    1DMC     O3 2565   3.703   2.962   4.141 -0.0978 -0.1583  0.2454
    1DMC     O4 2566   3.902   3.037   4.190  0.1694 -0.1592  0.0468
    1DMC     C5 2567   3.607   2.913   4.049  0.3579  0.0253 -0.3309
    1DMC     C6 2568   4.027   3.074   4.137 -0.0046  0.5344  0.1119
    1DMC     O1 2569   0.840   0.370   1.722  0.2848 -0.2049  0.5328
    1DMC     C2 2570   0.913   0.301   1.656  0.1067 -0.1693  0.2956
    1DMC     O3 2571   1.005   0.356   1.575 -0.0608  0.1156  0.2988
    1DMC     O4 2572   0.893   0.174   1.618  0.5086 -0.2152  0.2297
    1DMC     C5 2573   1.013   0.497   1.577 -0.7290  0.1640 -0.1221
    1DMC     C6 2574   0.764   0.129   1.656  0.5497 -0.1208  0.4804
    1DMC     O1 2575   3.291   1.973   3.376  0.5761 -0.3950  0.3912
    1DMC     C2 2576   3.296   1.882   3.298  0.1319  0.1857 -0.3301
    1DMC     O3 2577   3.242   1.759   3.311  0.0330  0.2296 -0.3241
    1DMC     O4 2578   3.409   1.853   3.231  0.1325 -0.6674  0.0224
    1DMC     C5 2579   3.166   1.733   3.427 -0.2700  0.8627 -0.3741
    1DMC     C6 2580   3.522   1.932   3.259 -0.4120  0.3035 -0.4372
    1DMC     O1 2581   1.770   0.518   1.838 -0.4522 -0.1755  0.2164
    1DMC     C2 2582   1.861   0.472   1.775 -0.4208  0.0349  0.1067
    1DMC     O3 2583   1.984   0.494   1.825 -0.3096  0.2122 -0.2416
    1DMC     O4 2584   1.860   0.380   1.677 -0.4336 -0.2325  0.3555
    1DMC     C5 2585   1.985   0.602   1.916  0.1820 -0.2208  0.2788
    1DMC     C6 2586   1.734   0.325   1.650 -0.2290 -0.5590  0.0615
    1DMC     O1 2587   1.823   2.947   1.530 -0.1342  0.0976  0.2180
    1DMC     C2 2588   1.744   2.872   1.580 -0.4908  0.1472 -0.2602
    1DMC     O3 2589   1.760   2.827   1.706  0.0269 -0.1978 -0.4467
    1DMC     O4 2590   1.626   2.830   1.532 -0.5742  0.1662 -0.0720
    1DMC     C5 2591   1.887   2.859   1.759 -0.2390 -0.4651  0.3718
    1DMC     C6 2592   1.589   2.899   1.415  0.0514  0.1236 -0.2964
    1DMC     O1 2593   0.071   2.717   3.310 -0.1493 -0.4098  0.1809
    1DMC     C2 2594   0.172   2.762   3.264 -0.4071 -0.2200 -0.2086
    1DMC     O3 2595   0.183   2.893   3.236 -0.4394 -0.1963 -0.1091
    1DMC     O4 2596   0.279   2.690   3.225 -0.0001  0.1443  0.2311
    1DMC     C5 2597   0.056   2.953   3.245 -0.4264 -0.2251  0.2924
    1DMC     C6 2598   0.258   2.551   3.221  0.2847  0.1099 -0.0714
    1DMC     O1 2599   3.534   3.812   3.467 -0.3311  0.5722 -0.2535
    1DMC     C2 2600   3.464   3.718   3.445 -0.3725  0.5387  0.0107
    1DMC     O3 2601   3.364   3.691   3.530 -0.2265  0.0072  0.0187
    1DMC     O4 2602   3.512   3.603   3.393 -0.4360  0.3991  0.2593
    1DMC     C5 2603   3.358   3.814   3.599 -0.0566  0.0445 -0.0342
    1DMC     C6 2604   3.643   3.622   3.344 -0.2695 -0.6126  0.3016
    1DMC     O1 2605   3.949   3.671   3.481  0.1732  0.2377 -0.2056
    1DMC     C2 2606   3.999   3.565   3.508 -0.0334  0.1300 -0.2438
    1DMC     O3 2607   3.944   3.488   3.603  0.5773  0.0219  0.0273
    1DMC     O4 2608   4.081   3.498   3.424 -0.3485 -0.4033 -0.1302
    1DMC     C5 2609   3.854   3.562   3.682  0.0871 -0.2418 -0.2787
    1DMC     C6 2610   4.111   3.582   3.315  0.1318 -0.2410  0.1205
    1DMC     O1 2611   3.202   0.071   1.840 -0.2632 -0.2493  0.1912
    1DMC     C2 2612   3.147   0.093   1.736  0.1850  0.4749  0.1022
    1DMC     O3 2613   3.112   0.007   1.639 -0.2630  0.0837  0.6088
    1DMC     O4 2614   3.141   0.217   1.685 -0.2679  0.3219 -0.2226
    1DMC     C5 2615   3.153  -0.125   1.667  0.3567  0.0082 -0.5908
    1DMC     C6 2616   3.185   0.313   1.778 -0.4154  0.5054 -0.3396
    1DMC     O1 2617   1.170   0.627   2.473  0.5461  0.0482 -1.1286
    1DMC     C2 2618   1.101   0.723   2.453  0.1131  0.1479  0.7508
    1DMC     O3 2619   1.152   0.837   2.405 -0.0050  0.0947  0.4974
    1DMC     O4 2620   0.987   0.745   2.522 -0.3627 -0.5826  0.2127
    1DMC     C5 2621   1.289   0.812   2.381  0.0574  0.5830  0.3193
    1DMC     C6 2622   0.959   0.642   2.614  0.0042 -1.1281 -0.2724
    1DMC     O1 2623   0.118   0.370   2.155 -0.1270 -0.0789  0.1013
    1DMC     C2 2624   0.078   0.323   2.257  0.2872 -0.4378  0.1039
    1DMC     O3 2625  -0.010   0.221   2.259 -0.6295  0.3292 -0.0479
    1DMC     O4 2626   0.111   0.360   2.382  0.0071  0.5402 -0.1002
    1DMC     C5 2627  -0.043   0.171   2.131  0.1631 -0.0083 -0.1311
    1DMC     C6 2628   0.227   0.438   2.403  0.3326  0.0856 -0.1798
    1DMC     O1 2629   3.939   3.767   1.910  0.1429  0.4460 -0.3410
    1DMC     C2 2630   3.952   3.656   1.866 -0.3876  0.1489  0.2450
    1DMC     O3 2631   3.922   3.548   1.940 -0.0828 -0.3260 -0.3137
    1DMC     O4 2632   3.950   3.628   1.735  0.2628 -0.1680  0.3024
    1DMC     C5 2633   3.935   3.581   2.077  0.3702  0.9809 -0.6605
    1DMC     C6 2634   3.935   3.731   1.640 -0.1493 -0.4322  0.0764
    1DMC     O1 2635   3.284   1.596   0.736 -0.5794 -0.1513 -0.4338
    1DMC     C2 2636   3.250   1.708   0.759 -0.5230 -0.1820 -0.2010
    1DMC     O3 2637   3.274   1.812   0.677 -0.0040 -0.3221 -0.2342
    1DMC     O4 2638   3.134   1.734   0.821 -0.0584  0.1660  0.5475
    1DMC     C5 2639   3.374   1.781   0.583  0.3157  0.3427 -0.1170
    1DMC     C6 2640   3.073   1.610   0.848  0.1990 -0.0126  0.3116
    1DMC     O1 2641   2.250   3.231   0.732 -0.0286 -0.7928 -0.0194
    1DMC     C2 2642   2.282   3.150   0.649 -0.4121 -0.7268 -0.2315
    1DMC     O3 2643   2.259   3.017   0.655  0.2173 -0.8140  0.3606
    1DMC     O4 2644   2.359   3.179   0.543 -0.1864  0.6275  0.2856
    1DMC     C5 2645   2.220   2.992   0.788  0.4059 -0.0985  0.5543
    1DMC     C6 2646   2.416   3.308   0.551  0.1791  0.4779  0.1315
    1DMC     O1 2647   0.459   1.168   2.264 -0.4101  0.2053  0.0594
    1DMC     C2 2648   0.465   1.286   2.242 -0.1869  0.1837  0.0002
    1DMC     O3 2649   0.496   1.386   2.326 -0.2870  0.1841  0.0361
    1DMC     O4 2650   0.441   1.334   2.118 -0.8357  0.0508  0.0699
    1DMC     C5 2651   0.520   1.338   2.456 -0.2268 -0.4131 -0.1968
    1DMC     C6 2652   0.416   1.232   2.024 -0.0781  0.0307 -0.1211
    1DMC     O1 2653   2.782   3.355   1.636  0.2633  0.4478  0.1986
    1DMC     C2 2654   2.725   3.444   1.582  0.1151  0.1627 -0.1143
    1DMC     O3 2655   2.598   3.479   1.609  0.0351 -0.0387 -0.2312
    1DMC     O4 2656   2.794   3.548   1.530  0.5667 -0.2942 -0.4360
    1DMC     C5 2657   2.531   3.391   1.696  0.2006 -0.2995 -0.3668
    1DMC     C6 2658   2.934   3.553   1.528  0.5336  0.7698 -0.6916
    1DMC     O1 2659   1.248   3.816   0.413  0.0499  0.1240  0.2563
    1DMC     C2 2660   1.172   3.739   0.362  0.3852 -0.2169  0.2722
    1DMC     O3 2661   1.212   3.618   0.318  0.3207 -0.2181  0.2168
    1DMC     O4 2662   1.038   3.741   0.356  0.3956  0.0832  0.1611
    1DMC     C5 2663   1.351   3.621   0.298  0.3551  0.6502  0.5369
    1DMC     C6 2664   0.973   3.828   0.447 -0.1450 -0.0379 -0.1038
    1DMC     O1 2665   0.605   3.036   0.799 -0.9161  0.1500  0.0549
    1DMC     C2 2666   0.583   2.964   0.892  0.4228 -0.9230 -0.4319
    1DMC     O3 2667   0.479   2.879   0.896 -0.0711 -0.3079 -0.1002
    1DMC     O4 2668   0.616   3.001   1.017 -0.4216 -0.1330 -0.4347
    1DMC     C5 2669   0.379   2.883   0.797  0.1180 -0.4678 -0.2978
    1DMC     C6 2670   0.676   3.128   1.031 -0.5464 -0.1221  0.0045
    1DMC     O1 2671   0.775   2.881   1.657 -0.1060  0.5333  0.2197
    1DMC     C2 2672   0.664   2.900   1.616 -0.1245  0.2484  0.1396
    1DMC     O3 2673   0.551   2.828   1.633 -0.1748  0.3257  0.1305
    1DMC     O4 2674   0.636   2.994   1.524 -0.1244 -0.0536 -0.1705
    1DMC     C5 2675   0.558   2.711   1.710 -0.0992  0.0820 -0.2423
    1DMC     C6 2676   0.746   3.076   1.491  0.1141 -0.4128 -0.2787
    1DMC     O1 2677   2.815   3.076   0.620 -0.5752  0.0083  0.1975
    1DMC     C2 2678   2.830   3.158   0.533 -0.6122  0.0401  0.2209
    1DMC     O3 2679   2.799   3.137   0.404 -0.0566  0.5992 -0.0106
    1DMC     O4 2680   2.893   3.275   0.553 -0.2716 -0.1223  0.1154
    1DMC     C5 2681   2.780   3.006   0.353  0.2531  0.5875 -0.0979
    1DMC     C6 2682   2.957   3.282   0.678 -0.1362 -1.2626  0.1202
    1DMC     O1 2683   1.348   0.124   2.318  0.1098 -0.4972 -0.0330
    1DMC     C2 2684   1.433   0.047   2.281  0.2734 -0.3209 -0.0275
    1DMC     O3 2685   1.558   0.041   2.328  0.3336  0.0154 -0.1409
    1DMC     O4 2686   1.417  -0.031   2.173 -0.7325 -0.1729 -0.0010
    1DMC     C5 2687   1.587   0.127   2.437  0.0712  0.2273 -0.2386
    1DMC     C6 2688   1.292  -0.035   2.109 -0.3077  0.2033 -0.8696
    1DMC     O1 2689   2.857   1.394   3.105  0.6125  0.0354  0.2293
    1DMC     C2 2690   2.920   1.393   3.207 -0.1224  0.2287  0.6938
    1DMC     O3 2691   3.041   1.337   3.221 -0.3073 -0.3627 -0.0054
    1DMC     O4 2692   2.916   1.484   3.306  0.2262  0.6326  0.3439
    1DMC     C5 2693   3.105   1.313   3.097  0.1497 -0.0529  0.1672
    1DMC     C6 2694   2.817   1.584   3.293  0.0887  0.4035 -0.4682
    1DMC     O1 2695   3.967   0.493   0.925  0.3204  0.0317 -0.1027
    1DMC     C2 2696   4.058   0.550   0.872  0.6837 -0.1719  0.2958
    1DMC     O3 2697   4.093   0.515   0.747  0.4769  0.3558  0.0836
    1DMC     O4 2698   4.100   0.671   0.914  0.0440  0.0815  0.2141
    1DMC     C5 2699   4.011   0.405   0.717  0.2595  0.5170  0.0876
    1DMC     C6 2700   4.062   0.714   1.043 -0.5853 -0.6145  0.2724
    1DMC     O1 2701   0.682   1.028   2.583 -0.0885 -0.1328 -0.2534
    1DMC     C2 2702   0.683   0.928   2.650 -0.0183 -0.1927 -0.3433
    1DMC     O3 2703   0.657   0.809   2.593  0.1973 -0.3804 -0.0571
    1DMC     O4 2704   0.652   0.919   2.781 -0.4341  0.0759 -0.4225
    1DMC     C5 2705   0.630   0.829   2.456  0.2429 -0.5148 -0.0858
    1DMC     C6 2706   0.628   1.046   2.837  0.6489  0.2038 -0.2274
    1DMC     O1 2707   0.443   1.910   1.106  0.3753 -0.5059  0.0538
    1DMC     C2 2708   0.324   1.925   1.097  0.3408 -0.7643  0.0569
    1DMC     O3 2709   0.260   1.992   0.999  0.1705 -0.4566  0.3757
    1DMC     O4 2710   0.233   1.851   1.162  0.0213 -0.9589 -0.6067
    1DMC     C5 2711   0.337   2.059   0.902  0.1576 -0.2865  0.4820
    1DMC     C6 2712   0.296   1.773   1.260 -0.2679 -0.2807  0.1349
    1DMC     O1 2713   0.599   3.774   1.966  0.0373 -0.6577 -0.1025
    1DMC     C2 2714   0.500   3.745   2.027  0.0409 -0.7020 -0.1175
    1DMC     O3 2715   0.374   3.782   1.996  0.2699  0.3989  0.2202
    1DMC     O4 2716   0.502   3.664   2.134 -0.3659 -0.6343 -0.0575
    1DMC     C5 2717   0.377   3.879   1.893  0.1066 -0.5195 -0.6698
    1DMC     C6 2718   0.632   3.620   2.165  0.0575  0.3356 -0.4313
    1DMC     O1 2719   2.974   0.324   3.089  0.2396  0.5367  0.1862
    1DMC     C2 2720   3.020   0.335   3.199  0.0627  0.2994  0.2853
    1DMC     O3 2721   2.990   0.263   3.309  0.3589 -0.2848 -0.0168
    1DMC     O4 2722   3.110   0.431   3.228  1.0219 -0.5456  0.1853
    1DMC     C5 2723   2.893   0.161   3.302  0.3291 -0.2215 -0.6196
    1DMC     C6 2724   3.140   0.513   3.118 -0.4326  0.7271  0.6911
    1DMC     O1 2725   2.794   2.156   1.046 -0.2660 -0.0752  0.0975
    1DMC     C2 2726   2.901   2.109   1.072 -0.2279  0.2963  0.6292
    1DMC     O3 2727   2.934   1.979   1.081 -0.0715  0.2502 -0.5048
    1DMC     O4 2728   3.011   2.187   1.067 -0.1679  0.1644 -0.2895
    1DMC     C5 2729   2.826   1.900   1.035 -0.2728 -0.0407  0.4280
    1DMC     C6 2730   2.972   2.322   1.061  0.7102  0.4360 -0.0188
    1DMC     O1 2731   1.135   1.696   1.981  0.5300 -0.0588  0.1200
    1DMC     C2 2732   1.196   1.593   1.972  0.3579 -0.1680  0.2033
    1DMC     O3 2733   1.224   1.518   2.080  0.3764 -0.4996 -0.0299
    1DMC     O4 2734   1.178   1.508   1.869 -0.2841 -0.3021  0.4219
    1DMC     C5 2735   1.173   1.566   2.202  0.1790 -0.1564 -0.2473
    1DMC     C6 2736   1.127   1.578   1.757  0.0200  0.2333  0.6155
    1DMC     O1 2737   3.591   3.395   0.764 -0.1839 -0.3016 -0.0598
    1DMC     C2 2738   3.567   3.458   0.864 -0.0187  0.3596 -0.4307
    1DMC     O3 2739   3.467   3.425   0.948  0.5092  0.1309  0.1094
    1DMC     O4 2740   3.629   3.562   0.921  0.3617 -0.1411  0.0770
    1DMC     C5 2741   3.395   3.308   0.919 -0.1038  0.5452 -0.0490
    1DMC     C6 2742   3.745   3.585   0.843  0.4467 -0.5570  0.0771
    1DMC     O1 2743   0.057   2.251   3.141  0.3256 -0.0478  0.1651
    1DMC     C2 2744  -0.048   2.302   3.167  0.5638  0.6167 -0.1559
    1DMC     O3 2745  -0.135   2.334   3.070  0.3823 -0.2591 -0.2901
    1DMC     O4 2746  -0.107   2.297   3.288 -0.6149 -0.1033 -0.7442
    1DMC     C5 2747  -0.060   2.349   2.952  0.5437 -0.6113 -0.2315
    1DMC     C6 2748  -0.033   2.228   3.386 -0.1490  0.5198 -0.6517
    1DMC     O1 2749   2.960   3.225   1.376  0.2772  0.0214 -0.5960
    1DMC     C2 2750   3.051   3.191   1.447 -0.1230 -0.1049 -0.1392
    1DMC     O3 2751   3.041   3.079   1.522  0.3425 -0.2124 -0.2344
    1DMC     O4 2752   3.180   3.220   1.424  0.0439 -0.4903  0.2915
    1DMC     C5 2753   2.904   3.049   1.510  0.1938  0.3227  0.1101
    1DMC     C6 2754   3.194   3.318   1.324  0.1023 -0.2938  0.4911
    1DMC     O1 2755   1.344   2.055   2.385 -0.5291  0.2034  0.2890
    1DMC     C2 2756   1.246   1.993   2.352 -0.3507  0.0456  0.0490
    1DMC     O3 2757   1.223   1.944   2.229 -0.0773 -0.2536  0.1151
    1DMC     O4 2758   1.158   1.946   2.443 -0.0643  0.5714  0.6063
    1DMC     C5 2759   1.329   1.955   2.137 -0.1618  0.0541  0.0539
    1DMC     C6 2760   1.193   1.989   2.573 -0.7525  0.5257  0.8092
    1DMC     O1 2761   1.960   2.473   0.480 -0.5951 -0.2027  0.3647
    1DMC     C2 2762   1.841   2.488   0.484 -0.6104 -0.1528 -0.2908
    1DMC     O3 2763   1.784   2.605   0.519 -0.6656 -0.0139 -0.8301
    1DMC     O4 2764   1.746   2.393   0.475 -0.3504 -0.4782  0.3571
    1DMC     C5 2765   1.901   2.682   0.535 -0.5076 -0.4270  0.0646
    1DMC     C6 2766   1.803   2.264   0.478 -0.4055 -0.5066  0.1912
    1DMC     O1 2767   2.537   3.068   3.045 -0.2530  0.1248 -0.2695
    1DMC     C2 2768   2.520   3.126   3.148  0.4501  0.6439 -0.4431
    1DMC     O3 2769   2.401   3.141   3.209  0.2443 -0.0224 -0.6813
    1DMC     O4 2770   2.610   3.184   3.230  0.0878  0.2173  0.2697
    1DMC     C5 2771   2.303   3.073   3.133 -0.0196 -0.2733 -0.1193
    1DMC     C6 2772   2.743   3.154   3.196 -0.1192 -0.2086 -0.1808
    1DMC     O1 2773   0.301   0.502   2.760 -0.0107 -0.3874 -0.2595
    1DMC     C2 2774   0.367   0.410   2.799 -0.1721 -0.3004  0.2210
    1DMC     O3 2775   0.319   0.334   2.899  0.0928 -0.3594  0.3023
    1DMC     O4 2776   0.501   0.402   2.789 -0.1455  0.1575  0.2014
    1DMC     C5 2777   0.187   0.368   2.934  0.0683  0.1213 -0.2468
    1DMC     C6 2778   0.547   0.525   2.739  0.5243 -0.2310 -0.1507
    1DMC     O1 2779   3.929   0.040   0.310 -0.0621 -0.2083  0.0653
    1DMC     C2 2780   3.974   0.072   0.417  0.5615  0.3879 -0.3696
    1DMC     O3 2781   3.892   0.125   0.509  0.4802 -0.0143 -0.2107
    1DMC     O4 2782   4.098   0.055   0.466  0.0452 -0.2535  0.7621
    1DMC     C5 2783   3.763   0.160   0.464  0.5898  0.0478 -0.4758
    1DMC     C6 2784   4.173  -0.007   0.364 -0.8931  0.5134 -0.4220
    1DMC     O1 2785   3.188   1.690   1.365 -0.5038  0.4559  0.5023
    1DMC     C2 2786   3.108   1.658   1.282  0.1467 -0.2567  0.1464
    1DMC     O3 2787   2.979   1.692   1.301  0.1998  0.2367 -0.3591
    1DMC     O4 2788   3.126   1.577   1.176 -0.1629  0.1249 -0.2028
    1DMC     C5 2789   2.940   1.796   1.387  0.4299 -0.1815  0.2577
    1DMC     C6 2790   3.252   1.513   1.173 -0.3722 -0.3213  0.3138
    1DMC     O1 2791   3.448   2.368   0.685 -0.1902 -0.2712 -0.1069
    1DMC     C2 2792   3.459   2.289   0.774  0.3268 -0.2609 -0.1545
    1DMC     O3 2793   3.374   2.187   0.797  0.0703 -0.1110 -0.4464
    1DMC     O4 2794   3.552   2.285   0.871  0.1611 -0.5376 -0.0033
    1DMC     C5 2795   3.275   2.182   0.696 -0.3956 -0.4485  0.0184
    1DMC     C6 2796   3.659   2.376   0.859 -0.3701  0.0348 -0.4680
    1DMC     O1 2797   1.976   1.005   1.543 -0.1515 -0.2579  0.0372
    1DMC     C2 2798   1.984   0.938   1.642  0.1927 -0.0104  0.1761
    1DMC     O3 2799   1.882   0.910   1.724 -0.0152 -0.1807 -0.1385
    1DMC     O4 2800   2.095   0.869   1.676 -0.0464 -0.5858 -0.1933
    1DMC     C5 2801   1.765   0.966   1.667  0.0902 -0.0867 -0.2622
    1DMC     C6 2802   2.174   0.857   1.560  0.5160 -0.8855  0.2193
    1DMC     O1 2803   1.557   1.680   2.617  0.8238 -0.1007 -0.1983
    1DMC     C2 2804   1.537   1.788   2.569  0.0638 -0.2175 -0.1441
    1DMC     O3 2805   1.527   1.890   2.656  0.1534 -0.2064 -0.1470
    1DMC     O4 2806   1.474   1.808   2.452  0.0401  0.0248 -0.0918
    1DMC     C5 2807   1.568   1.858   2.788 -0.4230  0.3650  0.1774
    1DMC     C6 2808   1.476   1.694   2.369  0.1339  0.0537 -0.1296
    1DMC     O1 2809   0.976   3.065   0.349 -0.6157  0.1526 -0.4523
    1DMC     C2 2810   0.990   2.962   0.289  0.1412 -0.1786  0.2870
    1DMC     O3 2811   1.081   2.868   0.321  0.2796 -0.1760 -0.0971
    1DMC     O4 2812   0.935   2.941   0.169  0.8390  0.6634 -0.1939
    1DMC     C5 2813   1.172   2.895   0.425  0.1442 -0.6888  0.1595
    1DMC     C6 2814   0.847   3.050   0.152 -0.2589 -0.2151 -0.2932
    1DMC     O1 2815   2.156   1.883   3.448  0.3201  0.4149 -0.2157
    1DMC     C2 2816   2.089   1.868   3.546 -0.0473 -0.3305 -0.5764
    1DMC     O3 2817   1.988   1.780   3.564 -0.1701 -0.1342 -0.3051
    1DMC     O4 2818   2.049   1.966   3.629  0.0281 -0.4747 -0.3692
    1DMC     C5 2819   1.986   1.683   3.462  0.4661 -0.4349 -0.0398
    1DMC     C6 2820   2.106   2.090   3.596 -0.3111 -0.1454  0.2638
    1DMC     O1 2821   0.436   1.205   3.288  0.1130  0.0588  0.1836
    1DMC     C2 2822   0.486   1.143   3.198 -0.3483 -0.1884  0.0978
    1DMC     O3 2823   0.411   1.082   3.104  0.0412 -0.4535 -0.0427
    1DMC     O4 2824   0.614   1.144   3.157 -0.1882 -0.6487  0.5771
    1DMC     C5 2825   0.273   1.077   3.131  0.0714 -0.4067  0.1238
    1DMC     C6 2826   0.690   1.211   3.255 -0.2032  0.1862  0.0245
    1DMC     O1 2827   2.572   2.620   1.512 -0.0388  0.2087  0.1879
    1DMC     C2 2828   2.601   2.728   1.468  0.0652  0.0424 -0.1609
    1DMC     O3 2829   2.703   2.798   1.521 -0.1110  0.1580  0.0285
    1DMC     O4 2830   2.546   2.793   1.364 -0.3092 -0.0141  0.0013
    1DMC     C5 2831   2.776   2.726   1.618 -0.6932 -0.1611  0.2358
    1DMC     C6 2832   2.437   2.722   1.310 -0.0502 -0.0284 -0.5055
    1DMC     O1 2833   3.591   2.844   3.514 -0.3042 -0.2755 -0.2085
    1DMC     C2 2834   3.614   2.745   3.578  0.0597  0.0267  0.1375
    1DMC     O3 2835   3.545   2.710   3.688  0.2449  0.0009  0.2452
    1DMC     O4 2836   3.676   2.638   3.525  0.1466 -0.0720  0.4391
    1DMC     C5 2837   3.474   2.820   3.740 -0.0369  0.0857 -0.3160
    1DMC     C6 2838   3.744   2.667   3.405 -0.0594  0.1597  0.3784
    1DMC     O1 2839   1.900   3.132   0.413 -0.0428  0.1592 -0.4523
    1DMC     C2 2840   1.949   3.222   0.476  0.2202 -0.2364 -0.0818
    1DMC     O3 2841   1.961   3.209   0.609 -0.1522 -0.0251 -0.0283
    1DMC     O4 2842   2.059   3.291   0.440  0.3662 -0.5216 -0.1849
    1DMC     C5 2843   1.853   3.138   0.666  0.3063 -0.5604  0.1838
    1DMC     C6 2844   2.084   3.266   0.303  0.7432 -0.0506 -0.2053
    1DMC     O1 2845   3.397   0.507   2.063 -0.5573 -0.2512  0.3718
    1DMC     C2 2846   3.481   0.423   2.084 -0.0765  0.0268 -0.3865
    1DMC     O3 2847   3.611   0.423   2.051 -0.0083  0.4956 -0.1271
    1DMC     O4 2848   3.444   0.298   2.116  0.2759 -0.0749 -0.3755
    1DMC     C5 2849   3.661   0.519   1.960 -0.1619  0.0287 -0.7063
    1DMC     C6 2850   3.308   0.263   2.107  0.3332 -0.4944  0.2780
    1DMC     O1 2851   0.821   2.765   0.873  0.5922  0.4677 -0.6559
    1DMC     C2 2852   0.918   2.815   0.922  0.1849 -0.0440  0.7055
    1DMC     O3 2853   0.998   2.905   0.863 -0.1985 -0.2591 -0.1523
    1DMC     O4 2854   0.944   2.815   1.054  0.4906  0.5874  0.6517
    1DMC     C5 2855   0.963   2.942   0.731 -0.0455 -0.1477 -0.1616
    1DMC     C6 2856   0.863   2.718   1.117  0.1309  0.6546  0.2899
    1DMC     O1 2857   0.759   1.728   2.076 -0.3739 -0.5098  0.2261
    1DMC     C2 2858   0.802   1.640   2.006 -0.2963 -0.0463 -0.3100
    1DMC     O3 2859   0.796   1.509   2.034 -0.1112  0.0113  0.0109
    1DMC     O4 2860   0.842   1.656   1.879 -0.2143  0.2088 -0.2524
    1DMC     C5 2861   0.756   1.484   2.167 -0.6354 -0.3173 -0.2019
    1DMC     C6 2862   0.817   1.783   1.822 -0.1816  0.1483 -0.4027
    1DMC     O1 2863   3.611   2.757   0.954 -0.1215 -0.2874 -0.7816
    1DMC     C2 2864   3.636   2.856   0.891  0.1996  0.7627  0.9210
    1DMC     O3 2865   3.750   2.891   0.829 -0.3332  0.2881 -0.3679
    1DMC     O4 2866   3.543   2.949   0.864  0.1760  0.5673  0.3200
    1DMC     C5 2867   3.839   2.782   0.820  0.2258  0.6443  0.6252
    1DMC     C6 2868   3.414   2.919   0.911  0.2383 -0.3050 -0.0511
    1DMC     O1 2869   2.675   2.706   2.932 -0.5885  0.0065 -0.1889
    1DMC     C2 2870   2.580   2.713   2.859 -0.5856 -0.3232 -0.2260
    1DMC     O3 2871   2.457   2.677   2.899 -0.5777 -0.0887  0.0097
    1DMC     O4 2872   2.578   2.775   2.740  0.0868  0.0362 -0.0550
    1DMC     C5 2873   2.454   2.632   3.032 -0.4020  0.4837  0.2113
    1DMC     C6 2874   2.711   2.807   2.704  0.1994  0.0370  0.3542
    1DMC     O1 2875   0.558   0.618   0.407 -0.0422  0.0927  0.3017
    1DMC     C2 2876   0.558   0.713   0.481  0.8943  0.0730  0.3392
    1DMC     O3 2877   0.493   0.716   0.599  0.1393  0.4926 -0.0755
    1DMC     O4 2878   0.602   0.837   0.451  0.1472  0.1983 -0.2682
    1DMC     C5 2879   0.435   0.589   0.619  0.9226  0.0707 -0.4315
    1DMC     C6 2880   0.643   0.843   0.317  0.1044  0.0546 -0.2884
    1DMC     O1 2881   0.176   2.076   3.658  0.5094 -0.0657 -0.3175
    1DMC     C2 2882   0.247   2.122   3.743 -0.2245 -0.1630  0.3656
    1DMC     O3 2883   0.380   2.110   3.748 -0.2076  0.0028  0.3362
    1DMC     O4 2884   0.201   2.206   3.837  0.1721 -0.2017  0.5923
    1DMC     C5 2885   0.429   2.020   3.651  0.1978  0.2506  0.3087
    1DMC     C6 2886   0.067   2.245   3.821  0.3937  0.2451 -0.2511
    1DMC     O1 2887   1.494   2.815   1.088  1.2022  0.3542 -0.3778
    1DMC     C2 2888   1.443   2.751   1.001  0.3302  0.3600  0.1207
    1DMC     O3 2889   1.368   2.798   0.900  0.3782 -0.1715 -0.1663
    1DMC     O4 2890   1.506   2.644   0.951  0.3378  0.3771  0.0945
    1DMC     C5 2891   1.297   2.917   0.925  0.1556 -0.3529  0.0571
    1DMC     C6 2892   1.606   2.587   1.033  0.0135 -0.2012  0.0917
    1DMC     O1 2893   2.700   2.405   3.767 -0.1864  0.3392  0.5416
    1DMC     C2 2894   2.759   2.320   3.705 -0.0533  0.4697  0.4887
    1DMC     O3 2895   2.728   2.290   3.578 -0.0425  0.0883  0.5754
    1DMC     O4 2896   2.884   2.276   3.727 -0.0394  0.1131 -0.2789
    1DMC     C5 2897   2.615   2.349   3.519 -0.1778 -0.4825  0.2583
    1DMC     C6 2898   2.941   2.334   3.843 -0.4827 -0.3120  0.1569
    1DMC     O1 2899   0.947   3.370   2.047 -0.0594  0.3193  0.1594
    1DMC     C2 2900   0.993   3.455   2.119  0.0211  0.2907  0.1426
    1DMC     O3 2901   1.022   3.579   2.076  0.5479  0.0717 -0.1341
    1DMC     O4 2902   0.970   3.459   2.252  0.1510 -0.5058  0.1946
    1DMC     C5 2903   1.027   3.592   1.936  0.1453  0.4492 -0.1165
    1DMC     C6 2904   0.917   3.347   2.319 -0.3177 -0.0823  0.5355
    1DMC     O1 2905   1.537   1.387   0.024  0.4685 -0.1396 -0.6897
    1DMC     C2 2906   1.475   1.462  -0.046  0.1099 -0.2471 -0.4911
    1DMC     O3 2907   1.446   1.589  -0.015 -0.1850 -0.4004 -0.1280
    1DMC     O4 2908   1.424   1.430  -0.167 -0.2761 -0.3023 -0.3155
    1DMC     C5 2909   1.494   1.619   0.114 -0.2700 -0.5781 -0.0547
    1DMC     C6 2910   1.447   1.292  -0.180 -0.0730 -0.2792 -0.2038
    1DMC     O1 2911   3.688   0.142   1.129  0.2474  0.1190 -0.6302
    1DMC     C2 2912   3.751   0.051   1.084 -0.1837 -0.4892 -0.0296
    1DMC     O3 2913   3.802   0.069   0.961 -0.0701 -0.1333  0.0688
    1DMC     O4 2914   3.822  -0.038   1.154 -0.2432 -0.5448 -0.0402
    1DMC     C5 2915   3.755   0.186   0.896 -0.4722  0.0265  0.6448
    1DMC     C6 2916   3.803  -0.025   1.293  0.1501 -0.2408 -0.0118
    1DMC     O1 2917   3.432   2.669   0.600 -0.3798  0.1524  0.1572
    1DMC     C2 2918   3.455   2.653   0.483 -0.1500 -0.6455  0.3055
    1DMC     O3 2919   3.360   2.605   0.400 -0.0804 -0.2007 -0.0373
    1DMC     O4 2920   3.568   2.682   0.417 -0.3953 -0.6318 -0.1122
    1DMC     C5 2921   3.252   2.530   0.451  0.1500 -0.4190  0.1384
    1DMC     C6 2922   3.653   2.764   0.495 -0.9188 -0.0300 -0.1639
    1DMC     O1 2923   3.533   2.374   3.198 -0.0822  0.0236  0.2863
    1DMC     C2 2924   3.517   2.395   3.081  0.5675  0.3384  0.2461
    1DMC     O3 2925   3.449   2.314   2.998  0.1156  0.1068  0.8319
    1DMC     O4 2926   3.523   2.520   3.031  0.5487  0.1589 -0.2015
    1DMC     C5 2927   3.409   2.188   3.049  0.2159 -0.2185  0.1138
    1DMC     C6 2928   3.539   2.627   3.121 -0.4278 -0.1732  0.3835
    1DMC     O1 2929   0.507   2.962   3.442  0.6369  0.0606 -0.3767
    1DMC     C2 2930   0.416   2.921   3.509  0.7252  0.4366 -0.0264
    1DMC     O3 2931   0.311   2.993   3.551  0.5151 -0.1377  0.4458
    1DMC     O4 2932   0.407   2.794   3.553 -0.1331  0.2207 -0.8043
    1DMC     C5 2933   0.328   3.129   3.517 -0.9201 -0.1037 -0.2409
    1DMC     C6 2934   0.507   2.714   3.495 -0.2194 -0.1529 -0.4465
    1DMC     O1 2935   3.710   0.898   1.668  0.2743 -0.2532  0.0033
    1DMC     C2 2936   3.750   0.971   1.581 -0.6677  0.1725 -0.0881
    1DMC     O3 2937   3.789   0.930   1.459 -0.2268 -0.0796  0.1369
    1DMC     O4 2938   3.767   1.103   1.603  0.2683  0.0474 -0.0141
    1DMC     C5 2939   3.777   0.791   1.436 -0.2083 -0.0132 -0.2754
    1DMC     C6 2940   3.713   1.153   1.723  0.1297  0.3200 -0.1894
    1DMC     O1 2941   0.755   0.904   3.590 -0.0798  0.2221  0.6769
    1DMC     C2 2942   0.814   0.800   3.581 -0.0599  0.3145 -0.3692
    1DMC     O3 2943   0.856   0.748   3.464 -0.5002 -0.1373 -0.3273
    1DMC     O4 2944   0.891   0.749   3.679 -0.0430  0.0763 -0.5051
    1DMC     C5 2945   0.790   0.799   3.351 -0.1732 -0.4457 -0.6597
    1DMC     C6 2946   0.866   0.806   3.805  0.0603 -0.2689 -0.3275
    1DMC     O1 2947   1.109   1.484   3.376  0.0742 -0.2297 -0.1100
    1DMC     C2 2948   1.069   1.582   3.432 -0.1620 -0.5716  0.3303
    1DMC     O3 2949   0.965   1.662   3.401  0.2025 -0.0650  0.3987
    1DMC     O4 2950   1.111   1.623   3.553 -0.0084  0.0778  0.0669
    1DMC     C5 2951   0.874   1.633   3.298  0.2932  0.2003  0.2430
    1DMC     C6 2952   1.217   1.542   3.599 -0.2034 -0.0881  0.2283
    1DMC     O1 2953   1.992   1.324   0.102  0.1920 -0.3088 -0.0422
    1DMC     C2 2954   2.027   1.404   0.184 -0.3683 -0.1289  0.0230
    1DMC     O3 2955   2.148   1.460   0.175 -0.6211  0.3674 -0.3073
    1DMC     O4 2956   1.937   1.491   0.234  0.3903  0.8020 -0.2120
    1DMC     C5 2957   2.218   1.417   0.060  0.0554  0.1296  0.1868
    1DMC     C6 2958   1.812   1.453   0.183  0.3339  0.5749  0.0912
    1DMC     O1 2959   2.653   2.966   3.717  0.0394 -0.3772 -0.0932
    1DMC     C2 2960   2.752   2.941   3.780  0.5045  0.5352 -0.4410
    1DMC     O3 2961   2.767   2.980   3.908  0.0292 -0.1721 -0.1672
    1DMC     O4 2962   2.842   2.846   3.748 -0.3714 -0.4350 -0.0739
    1DMC     C5 2963   2.667   3.056   3.973  0.7709  0.4426  0.2603
    1DMC     C6 2964   2.829   2.788   3.620 -0.2066 -0.1315 -0.2306
    1DMC     O1 2965   1.109   3.357   1.232  0.1776  0.1194 -0.1086
    1DMC     C2 2966   0.992   3.337   1.247  0.2688  0.0179  0.5258
    1DMC     O3 2967   0.928   3.218   1.243 -0.4139  0.4059 -0.5412
    1DMC     O4 2968   0.900   3.432   1.269  0.0837  0.0635 -0.3770
    1DMC     C5 2969   1.015   3.114   1.204  0.0100  0.4983  0.1557
    1DMC     C6 2970   0.970   3.554   1.273  0.5921 -0.2217 -0.4507
    1DMC     O1 2971   2.794   1.796   1.974  0.5088 -0.3258  0.1558
    1DMC     C2 2972   2.904   1.802   1.928  0.4486  0.2249  0.0692
    1DMC     O3 2973   3.008   1.742   1.989  0.3955 -0.0655 -0.1232
    1DMC     O4 2974   2.928   1.830   1.799  0.6139  0.0247  0.0548
    1DMC     C5 2975   2.971   1.685   2.112  0.0184 -0.1703 -0.2847
    1DMC     C6 2976   2.811   1.824   1.721  0.5056 -0.1019  0.2286
    1DMC     O1 2977   0.242   0.879   1.651 -0.1744 -0.1669 -0.3472
    1DMC     C2 2978   0.169   0.973   1.635 -0.6121 -0.5060 -0.3792
    1DMC     O3 2979   0.064   0.993   1.717 -0.2267  0.2716 -0.0699
    1DMC     O4 2980   0.153   1.049   1.526 -0.1480 -0.0209 -0.1136
    1DMC     C5 2981   0.061   0.894   1.817 -0.2779  0.1804 -0.1615
    1DMC     C6 2982   0.207   0.986   1.413 -0.0252 -0.3269  0.1144
    1DMC     O1 2983   0.253   0.267   0.056  0.0356 -0.0007 -0.3824
    1DMC     C2 2984   0.358   0.325   0.058  0.2191 -0.3513  0.4051
    1DMC     O3 2985   0.433   0.350  -0.051 -0.4121  0.4353  0.1497
    1DMC     O4 2986   0.412   0.387   0.164  0.1026  0.2998  0.0890
    1DMC     C5 2987   0.370   0.292  -0.163 -0.6555  0.4868  0.2588
    1DMC     C6 2988   0.335   0.377   0.282  0.2500 -0.4209  0.1332
    1DMC     O1 2989   2.069   1.764   1.253 -0.3149 -0.3483  0.0377
    1DMC     C2 2990   2.057   1.666   1.321  0.2056 -0.4785 -0.0552
    1DMC     O3 2991   1.947   1.624   1.385  0.0163  0.3519  0.1663
    1DMC     O4 2992   2.169   1.601   1.358  0.4305 -0.0743 -0.0141
    1DMC     C5 2993   1.835   1.707   1.359 -0.0206  0.2309 -0.0590
    1DMC     C6 2994   2.288   1.658   1.308  0.4778 -0.4648 -0.3663
    1DMC     O1 2995   0.500   2.280   1.615 -0.0714 -0.4483  0.1615
    1DMC     C2 2996   0.463   2.344   1.710 -0.1014  0.4303 -0.4340
    1DMC     O3 2997   0.355   2.423   1.719 -0.4374 -0.1148  0.4422
    1DMC     O4 2998   0.555   2.373   1.803  0.2495 -0.4681 -0.4891
    1DMC     C5 2999   0.263   2.422   1.611  0.4977  0.6028 -0.3810
    1DMC     C6 3000   0.674   2.303   1.775  0.6630  0.1199 -0.2091
    1DMC     O1 3001   3.347   1.385   3.635 -0.1332  0.1815  0.1637
    1DMC     C2 3002   3.317   1.270   3.647  0.6171 -0.0845 -0.4284
    1DMC     O3 3003   3.318   1.206   3.765  0.7543 -0.1682 -0.4748
    1DMC     O4 3004   3.213   1.216   3.581  0.2070  0.1952 -0.0168
    1DMC     C5 3005   3.369   1.290   3.865  0.5601  0.2767 -0.7471
    1DMC     C6 3006   3.149   1.333   3.533  0.4257  0.4862  0.3966
    1DMC     O1 3007   3.904   3.262   3.120  0.1349  0.0376 -0.3360
    1DMC     C2 3008   3.842   3.346   3.178  0.2331 -0.4378  0.4651
    1DMC     O3 3009   3.757   3.326   3.281 -0.6662  0.3161 -0.1185
    1DMC     O4 3010   3.799   3.461   3.123  0.2101 -0.6050  0.1360
    1DMC     C5 3011   3.760   3.198   3.339 -0.7711  0.5743  0.4622
    1DMC     C6 3012   3.864   3.485   3.000 -0.0581 -0.1867  0.0768
    1DMC     O1 3013   3.545   2.275   1.612 -0.0593 -0.1296  0.1179
    1DMC     C2 3014   3.561   2.332   1.507 -0.8491  0.1525  0.1472
    1DMC     O3 3015   3.531   2.262   1.396 -0.7165  0.3242  0.0037
    1DMC     O4 3016   3.531   2.462   1.488 -0.5314  0.2022 -0.0118
    1DMC     C5 3017   3.501   2.126   1.416  0.1697 -0.0119 -0.8520
    1DMC     C6 3018   3.487   2.526   1.605  0.4523  0.8437  0.0162
    1DMC     O1 3019   2.816   1.036   1.581 -0.1686 -0.7901 -0.1287
    1DMC     C2 3020   2.785   1.082   1.475  0.3783  0.0826  0.0801
    1DMC     O3 3021   2.657   1.107   1.439  0.2620 -0.5791  0.0270
    1DMC     O4 3022   2.849   1.058   1.359 -0.0545  0.6315 -0.2839
    1DMC     C5 3023   2.580   1.099   1.557  0.3538  0.4236  0.1609
    1DMC     C6 3024   2.963   0.984   1.398 -0.5078  0.2955  0.4305
    1DMC     O1 3025   0.472   0.216   0.954  0.3084  0.2552  0.0443
    1DMC     C2 3026   0.439   0.320   1.005 -0.2694  0.1958 -0.2024
    1DMC     O3 3027   0.321   0.344   1.064 -0.0930  0.6784 -0.0383
    1DMC     O4 3028   0.505   0.437   0.994 -0.1493  0.2330  0.8435
    1DMC     C5 3029   0.229   0.237   1.055  0.3759  0.2644  0.0709
    1DMC     C6 3030   0.625   0.419   0.921 -0.3977 -0.0900  0.5092
    1DMC     O1 3031   0.088   0.943   0.460 -0.2431  0.4217 -0.2587
    1DMC     C2 3032   0.208   0.938   0.466 -0.2880 -0.0800  0.2784
    1DMC     O3 3033   0.294   0.957   0.365 -0.0467  0.3210  0.5572
    1DMC     O4 3034   0.279   0.900   0.574 -0.1658  0.0129  0.2318
    1DMC     C5 3035   0.240   1.029   0.256  0.1207 -0.1716  0.1447
    1DMC     C6 3036   0.195   0.847   0.674 -0.2080 -0.1823  0.0948
    1DMC     O1 3037   3.677   3.333   2.714 -0.6730  0.5360  0.1490
    1DMC     C2 3038   3.648   3.345   2.599  0.2409 -0.2148 -0.1823
    1DMC     O3 3039   3.527   3.323   2.542 -0.0397  0.1694  0.2604
    1DMC     O4 3040   3.728   3.392   2.502 -0.1309  0.2986 -0.2449
    1DMC     C5 3041   3.456   3.232   2.623  0.3679 -0.0636  0.3612
    1DMC     C6 3042   3.864   3.387   2.537 -0.1272 -0.1191 -0.3222
    1DMC     O1 3043   1.825   1.676   0.760  0.7477  0.3557  0.4700
    1DMC     C2 3044   1.940   1.645   0.749  0.6337  0.2403 -0.4310
    1DMC     O3 3045   1.982   1.540   0.676  0.0908 -0.2532 -0.0359
    1DMC     O4 3046   2.027   1.687   0.842 -0.2579  0.2663  0.3946
    1DMC     C5 3047   1.879   1.493   0.591  0.4196  0.3451 -0.7832
    1DMC     C6 3048   1.948   1.771   0.924 -0.4440 -0.1962  0.6973
    1DMC     O1 3049   3.824   1.815   2.956  0.3790 -0.6767  0.5439
    1DMC     C2 3050   3.910   1.890   2.993 -0.3219  0.3618  0.1267
    1DMC     O3 3051   3.968   1.882   3.114 -0.1822  0.6799  0.0813
    1DMC     O4 3052   3.967   1.980   2.911 -0.4018 -0.3029 -0.6765
    1DMC     C5 3053   3.904   1.796   3.206  0.7393 -0.3452 -0.2238
    1DMC     C6 3054   3.892   1.978   2.792 -0.0804  0.3441 -0.8998
    1DMC     O1 3055   3.904   2.057   2.221  0.5793 -0.1274  0.2326
    1DMC     C2 3056   3.815   1.977   2.214  0.1426  0.3479  0.2644
    1DMC     O3 3057   3.771   1.902   2.112  0.0011  0.1832  0.4442
    1DMC     O4 3058   3.724   1.961   2.312 -0.1166  0.3570  0.0274
    1DMC     C5 3059   3.842   1.933   1.994  0.3544 -0.4165  0.4957
    1DMC     C6 3060   3.760   2.021   2.434  0.3318 -0.3281  0.2431
    1DMC     O1 3061   1.618   2.829   3.202  0.1273 -0.1086  0.3112
    1DMC     C2 3062   1.537   2.756   3.253 -0.3839  0.1097 -0.1798
    1DMC     O3 3063   1.406   2.750   3.223 -0.4521 -0.1449  0.1625
    1DMC     O4 3064   1.572   2.693   3.366  0.4382  0.1127 -0.4236
    1DMC     C5 3065   1.373   2.850   3.129  0.5055  0.1550  0.1263
    1DMC     C6 3066   1.697   2.713   3.429  0.2742  0.4265 -0.1928
    1DMC     O1 3067   2.553   2.222   1.363  0.3242  0.0867 -0.1382
    1DMC     C2 3068   2.651   2.152   1.361 -0.0392 -0.4251 -0.4146
    1DMC     O3 3069   2.774   2.206   1.357 -0.2788  0.2198  0.4070
    1DMC     O4 3070   2.654   2.034   1.425  0.0316 -0.3175 -0.2166
    1DMC     C5 3071   2.773   2.347   1.364 -0.0110  0.2313  0.2179
    1DMC     C6 3072   2.526   1.998   1.470  0.0513 -0.0253  0.0716
    1DMC     O1 3073   2.040   3.066   1.255  0.0226  0.0962 -0.9990
    1DMC     C2 3074   2.069   3.181   1.270  0.4582 -0.2038  0.6179
    1DMC     O3 3075   2.165   3.235   1.194 -0.0321  0.2089  0.2802
    1DMC     O4 3076   2.017   3.272   1.355  0.0883  0.2269 -0.0652
    1DMC     C5 3077   2.206   3.160   1.082  0.6354  0.2291  0.5021
    1DMC     C6 3078   1.897   3.231   1.417  0.1176  0.5610  0.2143
    1DMC     O1 3079   0.954   0.465   0.248 -0.2305  0.0863  0.1367
    1DMC     C2 3080   0.892   0.386   0.182  0.1497  0.1541 -0.3091
    1DMC     O3 3081   0.927   0.256   0.171 -0.0160  0.0846 -0.0247
    1DMC     O4 3082   0.774   0.408   0.121 -0.0370 -0.2004 -0.0827
    1DMC     C5 3083   1.052   0.230   0.232 -0.0824  0.3720  0.2400
    1DMC     C6 3084   0.709   0.530   0.147 -0.1427 -0.3353  0.2895
    1DMC     O1 3085   2.821   2.296   2.515  0.1672 -0.3617  0.4429
    1DMC     C2 3086   2.764   2.308   2.620  0.3235  0.0877  0.4793
    1DMC     O3 3087   2.797   2.244   2.734 -0.2564 -0.4267  0.3637
    1DMC     O4 3088   2.656   2.384   2.642  0.4287  0.4398 -0.1820
    1DMC     C5 3089   2.891   2.140   2.722  0.2424  0.0055  0.4836
    1DMC     C6 3090   2.630   2.475   2.538  0.3657  0.2794 -0.3064
    1DMC     O1 3091   3.895   2.668   2.312  0.1932  0.0571  0.0306
    1DMC     C2 3092   3.975   2.582   2.339  0.0063 -0.4326 -0.9046
    1DMC     O3 3093   3.958   2.449   2.333  0.4947 -0.5941  0.8159
    1DMC     O4 3094   4.096   2.597   2.397 -0.3436 -0.0546 -0.2640
    1DMC     C5 3095   3.830   2.391   2.319  0.4311 -0.1511 -0.5064
    1DMC     C6 3096   4.104   2.725   2.455  0.2085  0.0123 -0.4862
    1DMC     O1 3097   3.164   2.471   1.816  0.0709 -0.2080 -0.4082
    1DMC     C2 3098   3.065   2.523   1.771  0.2890  0.3677 -0.2304
    1DMC     O3 3099   2.968   2.452   1.711  0.2316  0.3181 -0.0798
    1DMC     O4 3100   3.031   2.652   1.776 -0.0190  0.2663  0.4032
    1DMC     C5 3101   2.988   2.312   1.712  0.0164  0.2869 -0.2130
    1DMC     C6 3102   3.132   2.739   1.821 -0.3155  0.4878  0.6498
   3.97405   3.97305   3.97205
