Electrolyte system
 3102
    1_EC     O1    1   0.847   3.520   1.840  0.3096 -0.2191  0.6084
    1_EC     C2    2   0.754   3.595   1.830  0.3755 -0.1237  0.7119
    1_EC     O3    3   0.635   3.571   1.891  0.2836  0.0050  0.5851
    1_EC     O4    4   0.768   3.730   1.838  0.1544 -0.0597  0.0801
    1_EC     C5    5   0.546   3.656   1.819  0.3103 -0.2283  0.2740
    1_EC     C6    6   0.639   3.774   1.794  0.0764 -0.0298  0.3361
    2_EC     O1    7   2.896   0.979   2.570 -0.7731  0.2337 -0.1957
    2_EC     C2    8   2.938   1.067   2.500 -0.0150 -0.3305 -0.4547
    2_EC     O3    9   3.064   1.118   2.505 -0.0225 -0.3725  0.2274
    2_EC     O4   10   2.899   1.083   2.371  0.1476  0.0567 -0.4563
    2_EC     C5   11   3.064   1.243   2.437  0.2379 -0.6366 -0.2637
    2_EC     C6   12   2.954   1.210   2.336 -0.2145  0.3169 -0.0948
    3_EC     O1   13   1.054   1.194   0.531  0.0400 -0.0221 -0.3818
    3_EC     C2   14   1.102   1.085   0.513 -0.1844 -0.1301 -0.3260
    3_EC     O3   15   1.106   0.990   0.611  0.1092  0.5109  0.3002
    3_EC     O4   16   1.099   1.021   0.393 -0.3595 -0.1304 -0.3220
    3_EC     C5   17   1.193   0.887   0.563 -0.3874  0.2092  0.0353
    3_EC     C6   18   1.166   0.897   0.413 -0.1866  0.0110 -0.0142
    4_EC     O1   19   3.769   1.891   0.002 -0.2440 -0.4647 -0.3348
    4_EC     C2   20   3.714   1.832   0.091 -0.0492 -0.6078 -0.3077
    4_EC     O3   21   3.775   1.748   0.179  0.1915  0.0969  0.2084
    4_EC     O4   22   3.607   1.879   0.162  0.1831  0.3250 -0.5593
    4_EC     C5   23   3.677   1.673   0.251 -0.1391  0.3516  0.0298
    4_EC     C6   24   3.556   1.762   0.226 -0.0322  0.2628 -0.8410
    5_EC     O1   25   2.217   3.848   1.695  0.2320 -0.0530  0.3471
    5_EC     C2   26   2.315   3.899   1.741  0.1583  0.2854  0.1308
    5_EC     O3   27   2.444   3.857   1.733 -0.1180 -0.5871  0.1493
    5_EC     O4   28   2.308   3.962   1.862  0.0770 -0.2052  0.3819
    5_EC     C5   29   2.528   3.954   1.797 -0.4178  0.0748 -0.4410
    5_EC     C6   30   2.430   0.053   1.883 -0.0096  0.0432  0.0578
    6_EC     O1   31   1.199   2.516   1.660  0.4242 -0.1163  0.4908
    6_EC     C2   32   1.202   2.585   1.758 -0.2176  0.2419  0.2582
    6_EC     O3   33   1.238   2.716   1.751 -0.2382  0.2447  0.2037
    6_EC     O4   34   1.268   2.544   1.869 -0.1780 -0.1487  0.0888
    6_EC     C5   35   1.219   2.763   1.885 -0.1260 -0.1385  0.3541
    6_EC     C6   36   1.233   2.638   1.970  0.1521 -0.1863  0.2375
    7_EC     O1   37   1.899   1.048   0.598  0.6556 -0.0308  0.2816
    7_EC     C2   38   1.937   1.141   0.533 -0.1891  0.1719  0.0595
    7_EC     O3   39   2.015   1.128   0.422 -0.4200  0.5336 -0.1468
    7_EC     O4   40   1.853   1.239   0.489 -0.1379  0.2320  0.0944
    7_EC     C5   41   2.059   1.260   0.386  0.7317  0.5110  1.1139
    7_EC     C6   42   1.940   1.339   0.436  0.0982  0.1105  0.2458
    8_EC     O1   43   1.713   2.651   0.299  0.1221  0.0638 -0.0755
    8_EC     C2   44   1.741   2.663   0.415 -0.6869  0.4967  0.0773
    8_EC     O3   45   1.862   2.709   0.458 -0.7063  0.5863  0.0366
    8_EC     O4   46   1.677   2.607   0.521 -0.5969  0.5283  0.1485
    8_EC     C5   47   1.840   2.744   0.595 -0.4936 -0.1930  0.2703
    8_EC     C6   48   1.704   2.689   0.635 -0.5966  0.1617  0.4105
    9_EC     O1   49   0.263   3.007   1.373  0.1654 -0.5441  0.1441
    9_EC     C2   50   0.311   3.057   1.275 -0.2717  0.0887  0.2429
    9_EC     O3   51   0.446   3.057   1.255 -0.2964  0.1932  0.0816
    9_EC     O4   52   0.273   3.027   1.148 -0.0575 -0.0137  0.2022
    9_EC     C5   53   0.462   3.152   1.149  0.0307 -0.0984 -0.1308
    9_EC     C6   54   0.341   3.120   1.063  0.0820 -0.3879 -0.0971
   10_EC     O1   55   2.481   3.513   0.826 -0.4611  0.2202  0.1516
   10_EC     C2   56   2.526   3.619   0.857 -0.0972  0.1392 -0.1020
   10_EC     O3   57   2.459   3.737   0.846  0.0821  0.2631  0.1184
   10_EC     O4   58   2.601   3.648   0.967  0.4390 -0.4911 -0.2936
   10_EC     C5   59   2.540   3.850   0.879  0.1802  0.1108  0.4089
   10_EC     C6   60   2.646   3.784   0.965  0.5588 -0.5325 -0.5279
   11_EC     O1   61   1.072   2.308   3.129 -0.0197  0.2094  0.3033
   11_EC     C2   62   1.102   2.349   3.021  0.1374 -0.3250  0.1377
   11_EC     O3   63   1.037   2.307   2.908  0.1359 -0.2124  0.0960
   11_EC     O4   64   1.229   2.374   2.980 -0.0622  0.1204 -0.2318
   11_EC     C5   65   1.081   2.396   2.805 -0.0303  0.3289  0.4871
   11_EC     C6   66   1.201   2.462   2.871 -0.1615  0.7532  0.3026
   12_EC     O1   67   2.202   2.668   3.462  1.1295 -0.4385  0.2125
   12_EC     C2   68   2.153   2.617   3.559 -0.2302  0.3327 -0.0417
   12_EC     O3   69   2.222   2.600   3.675  0.2514 -0.1620 -0.3952
   12_EC     O4   70   2.067   2.513   3.553 -0.0023  0.1352  0.0791
   12_EC     C5   71   2.123   2.565   3.772  0.0845  0.1066 -0.4674
   12_EC     C6   72   2.008   2.524   3.682 -0.3446  0.5019 -0.1045
   13_EC     O1   73   0.503   2.237   1.458 -0.0796 -0.4831 -0.3094
   13_EC     C2   74   0.454   2.302   1.546  0.5720 -0.3820 -0.0145
   13_EC     O3   75   0.524   2.366   1.644 -0.0244 -0.1947  0.2954
   13_EC     O4   76   0.331   2.282   1.601  0.0730  0.2346 -0.8715
   13_EC     C5   77   0.437   2.459   1.710 -0.0566 -0.0729  0.0822
   13_EC     C6   78   0.302   2.394   1.686  0.0398 -0.0752 -0.4684
   14_EC     O1   79   1.260   0.630   0.176  0.1020 -0.0784 -0.0529
   14_EC     C2   80   1.241   0.726   0.107  0.1732  0.0006  0.0375
   14_EC     O3   81   1.159   0.712   3.977  0.1695 -0.1133  0.0554
   14_EC     O4   82   1.187   0.839   0.160  0.1246  0.0577 -0.1325
   14_EC     C5   83   1.156   0.838   3.910 -0.5579 -0.2397 -0.1517
   14_EC     C6   84   1.166   0.931   0.052 -0.6397 -0.1794 -0.1911
   15_EC     O1   85   3.645   3.426   2.940  0.1369 -0.0533  0.2021
   15_EC     C2   86   3.739   3.458   3.007  0.1846  0.1115  0.0568
   15_EC     O3   87   3.862   3.479   2.952  0.0958  0.1828 -0.1155
   15_EC     O4   88   3.754   3.410   3.133 -0.1428  0.2937  0.1671
   15_EC     C5   89   3.957   3.493   3.058  0.0078 -0.4461  0.0516
   15_EC     C6   90   3.870   3.477   3.182 -0.0245  0.1328  0.1084
   16_EC     O1   91   1.327   2.666   3.678 -0.5899  0.0375  0.0431
   16_EC     C2   92   1.368   2.645   3.789 -0.1105  0.6221 -0.0207
   16_EC     O3   93   1.492   2.683   3.830 -0.1982  0.1791  0.6744
   16_EC     O4   94   1.287   2.640   3.898  0.2376  0.3606  0.2271
   16_EC     C5   95   1.515   2.641   3.964 -0.0171 -0.3574  0.4762
   16_EC     C6   96   1.374   2.601   0.027 -0.1710  0.2157  0.5092
   17_EC     O1   97   0.634   1.992   1.165  0.5866 -0.4232  0.8311
   17_EC     C2   98   0.529   1.940   1.192  0.0773 -0.2609 -0.7419
   17_EC     O3   99   0.405   1.976   1.150 -0.1729 -0.6104 -0.3161
   17_EC     O4  100   0.512   1.805   1.189 -0.3013 -0.2265 -0.1815
   17_EC     C5  101   0.315   1.897   1.227 -0.1021 -0.2804  0.1112
   17_EC     C6  102   0.391   1.769   1.258 -0.2821 -0.4837 -0.2825
   18_EC     O1  103   1.943   2.519   2.116 -0.0308 -0.2489  0.2007
   18_EC     C2  104   1.824   2.507   2.131 -0.0954  0.0319 -0.0953
   18_EC     O3  105   1.748   2.618   2.153  0.0892  0.1740 -0.1702
   18_EC     O4  106   1.786   2.433   2.239  0.1948  0.0398  0.0158
   18_EC     C5  107   1.616   2.569   2.178  0.1174  0.0908 -0.1840
   18_EC     C6  108   1.643   2.439   2.252  0.1828  0.1248 -0.1478
   19_EC     O1  109   0.097   0.957   0.564 -0.7169  0.1086 -0.0138
   19_EC     C2  110   0.203   0.904   0.540 -0.5088  0.4216  0.2129
   19_EC     O3  111   0.205   0.794   0.461 -0.1593  0.5084  0.1010
   19_EC     O4  112   0.302   0.881   0.631 -0.3215  0.1848 -0.0513
   19_EC     C5  113   0.342   0.781   0.421 -0.1616  0.3024  0.1547
   19_EC     C6  114   0.408   0.834   0.547 -0.1614 -0.2084  0.3708
   20_EC     O1  115   3.865   2.009   1.283  0.0071 -0.3509  0.0787
   20_EC     C2  116   3.888   1.941   1.187  0.2492 -0.0669 -0.0682
   20_EC     O3  117   3.873   1.975   1.056  0.6032  0.4325  0.0205
   20_EC     O4  118   3.969   1.832   1.196 -0.0818 -0.3063  0.0712
   20_EC     C5  119   3.958   1.892   0.977 -0.0860 -0.0152 -0.2586
   20_EC     C6  120   3.979   1.771   1.067  0.7324  0.2171 -0.1243
   21_EC     O1  121   0.837   1.729   0.303  0.2257 -0.2136  0.5241
   21_EC     C2  122   0.726   1.764   0.333 -0.0316 -0.2726 -0.3237
   21_EC     O3  123   0.697   1.835   0.445  0.2440 -0.2100 -0.2905
   21_EC     O4  124   0.621   1.680   0.308 -0.0811 -0.4532  0.4512
   21_EC     C5  125   0.557   1.819   0.472  0.1237  0.2295 -0.6492
   21_EC     C6  126   0.503   1.750   0.348 -0.2517 -0.4003 -0.1416
   22_EC     O1  127   3.944   1.704   3.295  0.5280 -0.1072 -0.8385
   22_EC     C2  128   3.940   1.824   3.297  0.9971 -0.0998 -0.1762
   22_EC     O3  129   3.920   1.895   3.411  0.0256 -0.4202 -0.1306
   22_EC     O4  130   0.044   1.897   3.220  0.3932  0.5648 -0.2155
   22_EC     C5  131   3.885   2.020   3.351 -0.0241  0.0062  0.7666
   22_EC     C6  132   3.977   2.032   3.231 -0.4254  0.2306  0.4801
   23_EC     O1  133   3.719   3.045   2.557  0.2253  0.1744 -0.0715
   23_EC     C2  134   3.763   3.034   2.446  0.2697 -0.4192  0.0029
   23_EC     O3  135   3.675   2.999   2.348  0.1720  0.1757 -0.1237
   23_EC     O4  136   3.848   3.125   2.391 -0.3628 -0.0077 -0.3024
   23_EC     C5  137   3.746   2.999   2.223  0.0151  0.1092 -0.2127
   23_EC     C6  138   3.872   3.076   2.259  0.1839 -0.1981 -0.1357
   24_EC     O1  139   0.816   2.925   0.249  0.3425 -0.5603  0.0522
   24_EC     C2  140   0.708   2.912   0.197  0.3770 -0.5143 -0.0308
   24_EC     O3  141   0.699   2.945   0.065  0.1166 -0.0292  0.1043
   24_EC     O4  142   0.633   2.800   0.213 -0.0722 -0.2188 -0.0449
   24_EC     C5  143   0.565   2.917   0.026  0.1282 -0.1762  0.1664
   24_EC     C6  144   0.514   2.835   0.143 -0.1831  0.4225  0.4561
   25_EC     O1  145   3.960   3.832   0.059  0.3415  0.1217 -0.4030
   25_EC     C2  146   3.875   3.796   3.960  0.0487  0.4466 -0.2340
   25_EC     O3  147   3.864   3.673   3.903 -0.2448  0.2547  0.2292
   25_EC     O4  148   3.813   3.884   3.877 -0.3391  0.4545  0.0617
   25_EC     C5  149   3.748   3.671   3.821 -0.0913  0.0633  0.0172
   25_EC     C6  150   3.701   3.816   3.819 -0.2190  0.0260  0.3355
   26_EC     O1  151   2.741   0.599   0.317  0.2028  0.2614  0.5869
   26_EC     C2  152   2.645   0.621   0.247  0.5317 -0.4688 -0.1173
   26_EC     O3  153   2.536   0.540   0.250  0.0827  0.1333  0.3584
   26_EC     O4  154   2.670   0.655   0.118 -0.0449  0.1440 -0.0742
   26_EC     C5  155   2.448   0.612   0.164  0.0559 -0.1080  0.1815
   26_EC     C6  156   2.540   0.689   0.070 -0.1326 -0.2428 -0.1161
   27_EC     O1  157   0.109   0.063   0.636  0.2401  0.3113  0.3053
   27_EC     C2  158   0.112   0.095   0.520  0.2566 -0.3940  0.1098
   27_EC     O3  159   0.076   0.009   0.420  0.2392 -0.0142 -0.2125
   27_EC     O4  160   0.075   0.217   0.471  0.8593 -0.3427 -0.2278
   27_EC     C5  161   0.095   0.079   0.297  0.5545 -0.0280 -0.1714
   27_EC     C6  162   0.098   0.227   0.331  0.4211 -0.0014 -0.2763
   28_EC     O1  163   1.823   1.392   3.918  0.3208 -0.2193  0.2496
   28_EC     C2  164   1.719   1.353   3.873  0.0889  0.2930  0.3396
   28_EC     O3  165   1.708   1.243   3.794 -0.4869  0.4230  0.2308
   28_EC     O4  166   1.608   1.429   3.850 -0.0393 -0.0199 -0.0830
   28_EC     C5  167   1.569   1.207   3.799 -0.3664 -0.0235  0.4215
   28_EC     C6  168   1.499   1.337   3.834 -0.2136  0.1677  0.0205
   29_EC     O1  169   3.019   0.343   3.309  0.2451  0.0338 -0.0109
   29_EC     C2  170   2.946   0.427   3.264  0.0954 -0.0849  0.0090
   29_EC     O3  171   2.930   0.549   3.322  0.1110  0.0949 -0.3617
   29_EC     O4  172   2.958   0.467   3.134 -0.2147  0.3791  0.1225
   29_EC     C5  173   2.831   0.618   3.245  0.2190  0.7080  0.0412
   29_EC     C6  174   2.854   0.561   3.106 -0.3105  0.2753  0.1262
   30_EC     O1  175   3.925   1.771   2.580  0.5639 -0.0659  0.0116
   30_EC     C2  176   3.852   1.692   2.632  0.0858 -0.0562 -0.6361
   30_EC     O3  177   3.804   1.579   2.573 -0.5305 -0.0022 -0.2540
   30_EC     O4  178   3.866   1.661   2.764 -0.1100  0.4682 -0.4884
   30_EC     C5  179   3.738   1.503   2.675  0.4779 -0.3322  0.1720
   30_EC     C6  180   3.755   1.581   2.804  0.2751  0.1339 -0.0798
   31_EC     O1  181   2.033   0.980   3.257  0.2640  0.0171 -0.0844
   31_EC     C2  182   2.044   0.934   3.147  0.6823 -0.3440  0.1081
   31_EC     O3  183   2.027   1.010   3.035  0.3625 -0.0941  0.3266
   31_EC     O4  184   1.987   0.816   3.110 -0.2028  0.2031 -0.3003
   31_EC     C5  185   2.054   0.929   2.920  0.2190 -0.0538  0.2644
   31_EC     C6  186   2.030   0.790   2.976  0.0376 -0.1903 -0.1476
   32_EC     O1  187   3.092   3.578   0.185  0.2060 -0.3769  0.2418
   32_EC     C2  188   3.088   3.489   0.104 -0.0965  0.2373 -0.4271
   32_EC     O3  189   3.202   3.429   0.061 -0.1227  0.2947 -0.5752
   32_EC     O4  190   3.016   3.494   3.967  0.0082 -0.2332 -0.5133
   32_EC     C5  191   3.155   3.315   3.966  0.0485 -0.2591  0.1709
   32_EC     C6  192   3.020   3.361   3.915  0.1115 -0.3869 -0.1140
   33_EC     O1  193   3.904   0.955   3.951  0.3297  0.4637  0.6150
   33_EC     C2  194   3.894   1.053   3.882 -0.2532 -0.0165  0.0060
   33_EC     O3  195   3.896   1.181   3.928 -0.2738 -0.0061 -0.0216
   33_EC     O4  196   3.966   1.058   3.767  0.2030  0.0371  0.2909
   33_EC     C5  197   3.872   1.265   3.815 -0.0452 -0.0081 -0.0707
   33_EC     C6  198   3.935   1.183   3.703  0.0767 -0.1071  0.0693
   34_EC     O1  199   0.265   0.200   3.510  0.2414  0.4261  0.2647
   34_EC     C2  200   0.385   0.206   3.504  0.2172  0.5232 -0.1438
   34_EC     O3  201   0.458   0.297   3.434  0.1028  0.6839 -0.0549
   34_EC     O4  202   0.464   0.169   3.608 -0.1533 -0.5484 -0.2298
   34_EC     C5  203   0.591   0.245   3.429 -0.1906 -0.0754 -0.0509
   34_EC     C6  204   0.594   0.153   3.550 -0.2181 -0.5155 -0.3834
   35_EC     O1  205   2.989   3.969   1.691 -0.2656  0.2378 -0.2323
   35_EC     C2  206   3.079   3.891   1.675 -0.5470 -0.1335  0.0004
   35_EC     O3  207   3.112   3.853   1.548  0.3381  0.2043  0.1229
   35_EC     O4  208   3.121   3.799   1.766 -0.3430 -0.0704 -0.0313
   35_EC     C5  209   3.229   3.772   1.565  0.5443  0.4423 -0.1630
   35_EC     C6  210   3.228   3.723   1.709 -0.1316  0.3457 -0.1973
   36_EC     O1  211   1.019   2.639   1.329 -0.6890 -0.8055  0.2212
   36_EC     C2  212   1.047   2.600   1.219  0.1185 -0.4335  0.2935
   36_EC     O3  213   1.033   2.692   1.119  0.4382 -0.5204  0.1677
   36_EC     O4  214   1.159   2.530   1.187  0.5063  0.3694 -0.1306
   36_EC     C5  215   1.063   2.612   1.005 -0.8156 -0.8764  0.0780
   36_EC     C6  216   1.189   2.538   1.047 -0.0775  0.1697 -0.2697
   37_EC     O1  217   0.758   2.513   0.827  0.0617 -0.2267  0.5193
   37_EC     C2  218   0.688   2.464   0.743  0.9741 -0.3445 -0.1833
   37_EC     O3  219   0.571   2.518   0.701  0.9821 -0.8342 -0.8505
   37_EC     O4  220   0.730   2.383   0.642  0.4614 -0.2137 -0.5015
   37_EC     C5  221   0.505   2.429   0.610 -0.5705 -0.8539  0.2467
   37_EC     C6  222   0.612   2.323   0.589  0.0857 -0.2212  0.3354
   38_EC     O1  223   3.918   2.289   0.179  0.0945 -0.2044  0.0220
   38_EC     C2  224   3.801   2.300   0.204  0.1728  0.2299  0.2080
   38_EC     O3  225   3.746   2.247   0.316 -0.0390 -0.1626 -0.0790
   38_EC     O4  226   3.703   2.357   0.128  0.0444 -0.4998 -0.1873
   38_EC     C5  227   3.606   2.228   0.294  0.0594 -0.4048 -0.4928
   38_EC     C6  228   3.579   2.344   0.199 -0.1015 -0.3811 -0.4187
   39_EC     O1  229   2.096   3.304   0.912  0.1498  0.7581 -0.7421
   39_EC     C2  230   2.174   3.228   0.861  0.0607 -0.0385  0.2739
   39_EC     O3  231   2.175   3.214   0.726  0.2935  0.5265  0.2123
   39_EC     O4  232   2.305   3.238   0.897  0.0256 -0.0786  0.4155
   39_EC     C5  233   2.295   3.147   0.685 -0.0025 -0.0191  0.2191
   39_EC     C6  234   2.367   3.137   0.818  0.2395  0.2865  0.1123
   40_EC     O1  235   0.164   2.645   3.591  0.1673  0.1263  0.2444
   40_EC     C2  236   0.269   2.588   3.598  0.2547  0.2093 -0.2947
   40_EC     O3  237   0.386   2.656   3.596  0.0612  0.5412 -0.3739
   40_EC     O4  238   0.295   2.489   3.508 -0.1765  0.2553 -0.4709
   40_EC     C5  239   0.494   2.562   3.589 -0.3876 -0.0109  0.0739
   40_EC     C6  240   0.423   2.436   3.543 -0.3106  0.0688 -0.2606
   41_EC     O1  241   3.577   0.224   3.644  0.3711  0.3647 -0.1311
   41_EC     C2  242   3.467   0.263   3.613  0.1482 -0.0427  0.1366
   41_EC     O3  243   3.381   0.325   3.697 -0.6864 -0.7914 -0.1515
   41_EC     O4  244   3.445   0.329   3.496 -0.0164 -0.4331 -0.0526
   41_EC     C5  245   3.258   0.342   3.626 -0.5391  0.5261 -0.1240
   41_EC     C6  246   3.304   0.353   3.482  0.0236 -0.1662 -0.0002
   42_EC     O1  247   2.118   2.121   1.081  0.2618 -0.3110 -0.2452
   42_EC     C2  248   2.190   2.025   1.072  0.1421 -0.4482  0.2558
   42_EC     O3  249   2.201   1.928   1.167 -0.2301 -0.3196  0.4310
   42_EC     O4  250   2.197   1.959   0.953 -0.3958 -0.3026  0.1434
   42_EC     C5  251   2.271   1.817   1.111  0.7942  0.3563  0.3351
   42_EC     C6  252   2.309   1.873   0.975 -0.0512  0.1016 -0.0124
   43_EC     O1  253   3.502   0.687   2.493 -0.5945  0.0371 -0.4241
   43_EC     C2  254   3.501   0.606   2.404 -0.1626 -0.1778 -0.2342
   43_EC     O3  255   3.480   0.642   2.275 -0.3071  0.2930 -0.0824
   43_EC     O4  256   3.419   0.499   2.424 -0.2034 -0.0894  0.0866
   43_EC     C5  257   3.484   0.518   2.203  0.5804  0.2388  0.0400
   43_EC     C6  258   3.428   0.420   2.305 -0.7193  0.5324 -0.3711
   44_EC     O1  259   2.796   3.786   3.812  0.1662 -0.2138  0.0331
   44_EC     C2  260   2.746   3.677   3.812  0.3518 -0.3010  0.1635
   44_EC     O3  261   2.669   3.632   3.915 -0.1868 -0.3696 -0.2641
   44_EC     O4  262   2.718   3.607   3.699  0.2169  0.2913 -0.1715
   44_EC     C5  263   2.674   3.490   3.895 -0.0363 -0.3913 -0.0754
   44_EC     C6  264   2.704   3.473   3.747 -0.7691  0.3303 -0.3177
   45_EC     O1  265   3.477   1.653   2.566 -0.7088  0.4096  0.3482
   45_EC     C2  266   3.404   1.666   2.471  0.2088 -0.1222 -0.4439
   45_EC     O3  267   3.380   1.786   2.411 -0.7684  0.0767  0.3240
   45_EC     O4  268   3.286   1.599   2.470 -0.0605  0.3232  0.6112
   45_EC     C5  269   3.295   1.758   2.300 -0.1988 -0.0726 -0.0812
   45_EC     C6  270   3.213   1.642   2.354 -0.0025  0.0444  0.4705
   46_EC     O1  271   1.817   3.945   3.955  0.8445 -0.6414 -0.2008
   46_EC     C2  272   1.875   0.068   3.929  0.2438 -0.2431 -0.0113
   46_EC     O3  273   1.828   0.194   3.946  0.2629 -0.3205  0.6412
   46_EC     O4  274   1.986   0.076   3.851  0.0689 -0.3634 -0.2725
   46_EC     C5  275   1.923   0.288   3.894  0.3716 -0.5446  0.4354
   46_EC     C6  276   2.008   0.207   3.797  0.8179 -0.1606  0.5017
   47_EC     O1  277   1.073   0.275   2.251 -0.4298  0.3198  0.0913
   47_EC     C2  278   1.070   0.245   2.135  0.0489 -0.3314  0.2388
   47_EC     O3  279   1.067   0.331   2.029 -0.0224 -0.0178  0.4931
   47_EC     O4  280   0.976   0.154   2.098 -0.2129 -0.1433  0.4303
   47_EC     C5  281   1.062   0.252   1.910  0.7201  0.0901  0.3844
   47_EC     C6  282   1.000   0.122   1.960  0.1148  0.3711  0.3662
   48_EC     O1  283   1.122   3.830   2.593 -0.2518 -0.1279  0.6354
   48_EC     C2  284   1.074   3.816   2.484  0.7827  0.1498  0.1367
   48_EC     O3  285   1.037   3.916   2.399  0.1451 -0.2883 -0.1027
   48_EC     O4  286   1.106   3.715   2.400 -0.3786 -0.0722 -0.0534
   48_EC     C5  287   0.966   3.853   2.292 -0.3707 -0.1715  0.1687
   48_EC     C6  288   0.996   3.705   2.309  0.0828 -0.1759 -0.6094
   49_EC     O1  289   3.924   3.007   0.436  0.2730 -0.4137 -0.3839
   49_EC     C2  290   3.969   3.077   0.522 -0.4575 -0.3927 -0.0137
   49_EC     O3  291   0.053   3.193   0.489 -0.0776 -0.6091 -0.0434
   49_EC     O4  292   0.068   3.032   0.623 -0.0238  0.2881 -0.0405
   49_EC     C5  293   0.084   3.263   0.609  0.3100 -0.4581 -0.2299
   49_EC     C6  294   0.119   3.144   0.696  0.3742 -0.0874  0.2624
   50_EC     O1  295   2.389   2.309   0.782  0.1500 -0.0229 -0.1057
   50_EC     C2  296   2.271   2.330   0.784  0.1703  0.1105 -0.3139
   50_EC     O3  297   2.194   2.335   0.897 -0.0704  0.1599 -0.4794
   50_EC     O4  298   2.216   2.417   0.695  0.0413  0.4367  0.0795
   50_EC     C5  299   2.067   2.395   0.871 -0.2637  0.1374  0.3935
   50_EC     C6  300   2.075   2.406   0.720  0.1414 -0.2202  0.3881
   51_EC     O1  301   0.116   1.934   0.290 -0.5057  0.0283 -0.0102
   51_EC     C2  302   0.047   1.952   0.386 -0.1015 -0.1712  0.3248
   51_EC     O3  303   0.085   1.925   0.513  0.2198  0.3192  0.3352
   51_EC     O4  304   3.892   1.929   0.383 -0.0903 -0.2580  0.4877
   51_EC     C5  305   3.960   1.979   0.595  0.1107  0.5420  0.0507
   51_EC     C6  306   3.845   1.999   0.499 -0.0404  0.2943  0.1797
   52_EC     O1  307   3.405   3.781   0.698 -0.2807 -0.2452  0.5573
   52_EC     C2  308   3.348   3.725   0.608  0.5467 -0.1814 -0.0153
   52_EC     O3  309   3.342   3.589   0.603  0.4208 -0.2002  0.4976
   52_EC     O4  310   3.294   3.780   0.496  0.5051 -0.0632  0.0623
   52_EC     C5  311   3.222   3.558   0.532  0.6582  0.1197 -0.0530
   52_EC     C6  312   3.206   3.680   0.443 -0.0708  0.3045  0.3185
   53_EC     O1  313   0.260   1.153   2.534  0.1189  0.2369  0.3445
   53_EC     C2  314   0.141   1.164   2.548  0.1247  0.4602  0.2163
   53_EC     O3  315   0.065   1.252   2.477 -0.1259  0.6526  0.7174
   53_EC     O4  316   0.075   1.150   2.666  0.2505 -0.0824  0.2237
   53_EC     C5  317   3.912   1.202   2.492 -0.2195  0.6854  0.0566
   53_EC     C6  318   3.921   1.123   2.622  0.4429 -0.0234 -0.4133
   54_EC     O1  319   2.809   2.689   0.540  0.2066 -0.2717 -0.3202
   54_EC     C2  320   2.926   2.661   0.544  0.2252 -0.1760 -0.1880
   54_EC     O3  321   2.975   2.538   0.574 -0.2127 -0.2392  0.2834
   54_EC     O4  322   3.026   2.732   0.484  0.3682 -0.6858 -0.5579
   54_EC     C5  323   3.110   2.560   0.615 -0.2511 -0.1428  0.3583
   54_EC     C6  324   3.139   2.700   0.565 -0.0425 -0.2408  0.2010
   55_EC     O1  325   3.692   3.156   0.740 -0.5891 -0.3945 -0.4561
   55_EC     C2  326   3.673   3.250   0.668 -0.1506  0.0344 -0.0212
   55_EC     O3  327   3.701   3.231   0.536  0.0051  0.2080 -0.0142
   55_EC     O4  328   3.709   3.379   0.695  0.4437 -0.0297 -0.4717
   55_EC     C5  329   3.660   3.351   0.471  0.3874  0.5206  0.3159
   55_EC     C6  330   3.653   3.451   0.585 -0.4652  0.4746  0.3056
   56_EC     O1  331   3.291   0.499   0.740 -0.0130  0.0337 -0.7176
   56_EC     C2  332   3.406   0.488   0.705  0.0909  0.1533 -0.4130
   56_EC     O3  333   3.501   0.490   0.802 -0.1724 -0.0083 -0.1502
   56_EC     O4  334   3.448   0.486   0.576 -0.2079  0.0568 -0.5114
   56_EC     C5  335   3.620   0.530   0.734 -0.1531 -0.4908 -0.4092
   56_EC     C6  336   3.591   0.484   0.593 -0.2059 -0.0528 -0.5430
   57_EC     O1  337   2.281   3.522   3.028  0.4022 -0.2299  0.0628
   57_EC     C2  338   2.218   3.515   3.130  0.1189 -0.1587 -0.1069
   57_EC     O3  339   2.200   3.397   3.196  0.6340 -0.0448  0.2420
   57_EC     O4  340   2.229   3.606   3.230 -0.0412 -0.3067  0.0454
   57_EC     C5  341   2.100   3.424   3.295  0.0844 -0.6424 -0.1452
   57_EC     C6  342   2.134   3.567   3.330  0.2462 -0.7520  0.1490
   58_EC     O1  343   3.702   2.731   1.097 -0.1124  0.2237 -0.1001
   58_EC     C2  344   3.761   2.765   0.998 -0.2351  0.7048 -0.0136
   58_EC     O3  345   3.893   2.799   0.998  0.0470 -0.3344  0.0997
   58_EC     O4  346   3.703   2.828   0.892 -0.3745  0.1872 -0.2515
   58_EC     C5  347   3.932   2.784   0.861  0.2911  0.5655  0.0633
   58_EC     C6  348   3.806   2.834   0.793 -0.0002 -0.0866  0.1146
   59_EC     O1  349   0.682   1.523   0.613 -0.3033 -0.1807 -0.1459
   59_EC     C2  350   0.732   1.575   0.708 -0.0401 -0.7939  0.0561
   59_EC     O3  351   0.657   1.596   0.819  0.3134 -0.3086  0.2080
   59_EC     O4  352   0.855   1.551   0.763  0.0595  0.0258  0.2052
   59_EC     C5  353   0.732   1.695   0.890  0.0946  0.4614 -0.6164
   59_EC     C6  354   0.875   1.651   0.864  0.1598  0.4204 -0.2003
   60_EC     O1  355   1.372   2.039   1.655 -0.3668 -0.4435 -0.0504
   60_EC     C2  356   1.400   1.969   1.749 -0.2708  0.1031  0.3328
   60_EC     O3  357   1.521   1.913   1.774 -0.2788  0.0044  0.1501
   60_EC     O4  358   1.321   1.862   1.774  0.0755 -0.2519 -0.0858
   60_EC     C5  359   1.507   1.838   1.895 -0.0178  0.1751  0.2854
   60_EC     C6  360   1.360   1.802   1.898  0.0856 -0.2921 -0.1084
   61_EC     O1  361   2.155   1.455   1.918 -0.2383 -0.0283  0.2268
   61_EC     C2  362   2.192   1.419   2.027 -0.3802  0.0876  0.3146
   61_EC     O3  363   2.157   1.310   2.101 -0.0614 -0.1482  0.1205
   61_EC     O4  364   2.257   1.509   2.104  0.0909  0.2600 -0.2743
   61_EC     C5  365   2.240   1.315   2.217 -0.2730  0.1561  0.2609
   61_EC     C6  366   2.244   1.465   2.240 -0.5549  0.2550 -0.3330
   62_EC     O1  367   0.651   0.419   2.303 -0.0651  0.2662 -0.6046
   62_EC     C2  368   0.756   0.474   2.319  0.3668 -0.7289  0.0590
   62_EC     O3  369   0.800   0.500   2.445  0.0737 -0.0495  0.0200
   62_EC     O4  370   0.782   0.585   2.246 -0.3380 -0.4038  0.2967
   62_EC     C5  371   0.927   0.560   2.418  0.4440 -0.9096 -0.1598
   62_EC     C6  372   0.919   0.613   2.275 -0.3737 -0.0974  0.1777
   63_EC     O1  373   1.109   1.243   3.323 -0.2892 -0.1966 -0.1512
   63_EC     C2  374   1.066   1.355   3.322  0.2975  0.0362  0.2255
   63_EC     O3  375   0.999   1.404   3.430 -0.3016 -0.6388  0.1676
   63_EC     O4  376   1.145   1.458   3.280  0.1093  0.0840 -0.0131
   63_EC     C5  377   0.961   1.538   3.399  0.2533 -0.6505 -0.5883
   63_EC     C6  378   1.067   1.577   3.297  0.4564  0.3128 -0.0211
   64_EC     O1  379   1.786   0.479   3.609  0.6154 -0.4744 -0.4722
   64_EC     C2  380   1.693   0.403   3.605  0.4134 -0.2491 -0.0985
   64_EC     O3  381   1.579   0.404   3.679  0.2913 -0.2293 -0.2870
   64_EC     O4  382   1.699   0.285   3.538  0.3903 -0.4847  0.3144
   64_EC     C5  383   1.483   0.315   3.621 -0.3765  0.5021 -0.3353
   64_EC     C6  384   1.564   0.249   3.510  0.2181  0.1776  0.2837
   65_EC     O1  385   2.773   3.930   3.292  0.4761 -0.3658 -0.3509
   65_EC     C2  386   2.814   3.975   3.396  0.1633 -0.1266 -0.3293
   65_EC     O3  387   2.738   0.079   3.472  0.3803  0.1822 -0.4487
   65_EC     O4  388   2.898   3.916   3.486 -0.1166  0.0300  0.0369
   65_EC     C5  389   2.835   0.152   3.547  0.4055  0.5664 -0.8486
   65_EC     C6  390   2.939   0.044   3.571 -0.1339  0.1897 -0.1557
   66_EC     O1  391   3.103   3.348   3.599 -0.0437  0.0311  0.1809
   66_EC     C2  392   3.072   3.455   3.554 -0.0733  0.1152  0.3983
   66_EC     O3  393   2.951   3.515   3.567 -0.3384 -0.2986 -0.1100
   66_EC     O4  394   3.156   3.538   3.486 -0.0558  0.1175  0.4225
   66_EC     C5  395   2.947   3.617   3.467 -0.0834 -0.2165 -0.0382
   66_EC     C6  396   3.091   3.664   3.470 -0.1305 -0.0320 -0.5307
   67_EC     O1  397   1.154   1.869   3.621 -0.1808 -0.0597  0.0074
   67_EC     C2  398   1.152   1.934   3.520  0.2581 -0.0019  0.0350
   67_EC     O3  399   1.073   1.921   3.410 -0.2892  0.4532  0.3687
   67_EC     O4  400   1.266   1.991   3.473  0.3358  0.0857  0.3255
   67_EC     C5  401   1.115   2.015   3.311 -0.2944  0.2327  0.1585
   67_EC     C6  402   1.230   2.090   3.376 -0.1247 -0.1255  0.2778
   68_EC     O1  403   0.058   1.396   2.867 -0.2142  0.2300 -0.3855
   68_EC     C2  404   0.178   1.400   2.867 -0.2296  0.7166 -0.2845
   68_EC     O3  405   0.258   1.438   2.971  0.1084 -0.0940 -0.2461
   68_EC     O4  406   0.253   1.430   2.757 -0.5508  0.0052 -0.7020
   68_EC     C5  407   0.395   1.417   2.937  0.2614  0.6109 -0.0625
   68_EC     C6  408   0.385   1.386   2.789 -0.7154  0.0745  0.1124
   69_EC     O1  409   1.666   2.376   3.740 -0.3361  0.3379  0.4754
   69_EC     C2  410   1.571   2.302   3.748 -0.0224 -0.1871 -0.5336
   69_EC     O3  411   1.461   2.325   3.824  0.1151 -0.4042 -0.2691
   69_EC     O4  412   1.593   2.169   3.766  0.5488 -0.0242 -0.0002
   69_EC     C5  413   1.369   2.221   3.789 -0.3405 -0.3020  0.6013
   69_EC     C6  414   1.465   2.111   3.744  0.3124  0.3406  0.4047
   70_EC     O1  415   1.390   0.707   0.887  0.0539  0.2570  0.1263
   70_EC     C2  416   1.302   0.784   0.916 -0.2371 -0.0551  0.0830
   70_EC     O3  417   1.309   0.918   0.894 -0.0350  0.0932  1.0305
   70_EC     O4  418   1.178   0.758   0.866 -0.1790 -0.2037  0.0137
   70_EC     C5  419   1.191   0.967   0.957 -0.4006  0.5672 -0.0071
   70_EC     C6  420   1.095   0.852   0.934 -0.0739  0.4312 -0.7175
   71_EC     O1  421   1.758   3.456   0.029 -0.8427  0.3242 -0.6202
   71_EC     C2  422   1.800   3.408   3.905  0.0504 -0.6043  0.1645
   71_EC     O3  423   1.912   3.457   3.845 -0.3801  0.3044  0.0799
   71_EC     O4  424   1.719   3.391   3.796 -0.5250 -0.9829  0.6432
   71_EC     C5  425   1.943   3.351   3.754  0.0778  0.4252  0.0972
   71_EC     C6  426   1.803   3.324   3.702  0.0534  0.2723  0.2417
   72_EC     O1  427   0.324   3.422   0.758  0.0056  0.3689  0.3930
   72_EC     C2  428   0.435   3.404   0.714 -0.2437 -0.6337  0.1392
   72_EC     O3  429   0.530   3.494   0.752 -0.3983 -0.2813 -0.2901
   72_EC     O4  430   0.461   3.363   0.587 -0.1181 -0.0513 -0.0282
   72_EC     C5  431   0.637   3.498   0.658 -0.1086 -0.0356  0.0464
   72_EC     C6  432   0.601   3.382   0.566 -0.1051 -0.0483  0.0612
   73_EC     O1  433   2.736   3.173   0.091 -0.8307 -0.1381  0.3801
   73_EC     C2  434   2.784   3.102   0.176 -0.0812 -0.3870 -0.2428
   73_EC     O3  435   2.915   3.122   0.209 -0.1910 -0.0397 -0.0110
   73_EC     O4  436   2.773   2.967   0.180  0.8347 -0.4631 -0.0600
   73_EC     C5  437   2.956   3.017   0.296 -0.5732 -0.3748 -0.2303
   73_EC     C6  438   2.836   2.923   0.300 -0.4094 -0.5554  0.5740
   74_EC     O1  439   1.706   1.000   3.173 -0.2274  0.1616  0.2399
   74_EC     C2  440   1.727   1.051   3.066 -0.1008  0.3182  0.3388
   74_EC     O3  441   1.677   1.010   2.946  0.3137 -0.4691  0.4295
   74_EC     O4  442   1.722   1.186   3.062 -0.1597  0.3142  0.2804
   74_EC     C5  443   1.721   1.107   2.851 -0.6373 -0.0044  0.4607
   74_EC     C6  444   1.761   1.229   2.931  0.3208 -0.1826  0.2581
   75_EC     O1  445   3.523   0.178   0.907  0.0712 -0.0228  0.3815
   75_EC     C2  446   3.588   0.096   0.849  0.0760  0.4289 -0.2638
   75_EC     O3  447   3.659   0.122   0.737  0.3062  0.2614 -0.1574
   75_EC     O4  448   3.647   3.968   0.911 -0.1184  0.5696  0.1708
   75_EC     C5  449   3.716   3.977   0.692  0.4056  0.1822  0.1828
   75_EC     C6  450   3.681   3.880   0.804  0.4105  0.4606  0.4281
   76_EC     O1  451   0.265   0.841   3.218  0.6596  0.5388  0.4155
   76_EC     C2  452   0.205   0.930   3.164  0.1157 -0.0623  0.0169
   76_EC     O3  453   0.072   0.950   3.188  0.0977 -0.1357 -0.0198
   76_EC     O4  454   0.212   0.956   3.031 -0.0986 -0.3228 -0.0478
   76_EC     C5  455   0.033   1.068   3.119 -0.1283 -0.2066 -0.0137
   76_EC     C6  456   0.125   1.064   2.997  0.2164  0.0229  0.2362
   77_EC     O1  457   3.469   2.446   2.145  0.1198 -0.1775 -0.2373
   77_EC     C2  458   3.518   2.514   2.230 -0.8989 -0.5791  0.6985
   77_EC     O3  459   3.500   2.648   2.250 -0.1446 -0.3867  0.1374
   77_EC     O4  460   3.613   2.472   2.318  0.2384  0.2700 -0.0932
   77_EC     C5  461   3.606   2.695   2.333 -0.3838 -0.0439  0.2493
   77_EC     C6  462   3.614   2.571   2.421  0.3465 -0.0371  0.2018
   78_EC     O1  463   1.866   0.432   2.875 -0.1336 -0.2433  0.1258
   78_EC     C2  464   1.973   0.385   2.905 -0.0071  0.0050  0.0604
   78_EC     O3  465   2.080   0.385   2.822  0.3577  0.1061  0.5283
   78_EC     O4  466   2.003   0.322   3.021 -0.3239  0.1251  0.2091
   78_EC     C5  467   2.172   0.291   2.877  0.3558 -0.1583  0.0875
   78_EC     C6  468   2.145   0.308   3.026 -0.2640  0.6358 -0.1151
   79_EC     O1  469   0.225   1.538   0.265  0.0350 -0.5676  0.1191
   79_EC     C2  470   0.144   1.580   0.187  0.4282 -0.0076  0.0056
   79_EC     O3  471   0.064   1.505   0.106 -0.0424  0.0470  0.4101
   79_EC     O4  472   0.185   1.685   0.111 -0.2991  0.0564 -0.3131
   79_EC     C5  473   0.005   1.590   0.008  0.3552 -0.4217 -0.2479
   79_EC     C6  474   0.068   1.725   0.040 -0.3119 -0.0782 -0.3682
   80_EC     O1  475   3.714   2.804   3.220  0.4188 -0.1003 -0.1847
   80_EC     C2  476   3.710   2.851   3.109  0.2117  0.1387 -0.0749
   80_EC     O3  477   3.794   2.950   3.069  0.0443  0.3382  0.0651
   80_EC     O4  478   3.702   2.763   3.006 -0.6375  0.0625  0.0458
   80_EC     C5  479   3.758   2.971   2.932 -0.4646 -0.0807  0.1292
   80_EC     C6  480   3.710   2.836   2.884 -0.4849 -0.0275  0.0009
   81_EC     O1  481   0.161   0.551   2.776 -0.4438 -0.1959 -0.3691
   81_EC     C2  482   0.074   0.570   2.856  0.0501  0.1108  0.0988
   81_EC     O3  483   0.004   0.686   2.866 -0.0190  0.0624  0.1768
   81_EC     O4  484   0.004   0.469   2.915  0.1302  0.0681  0.1220
   81_EC     C5  485   3.897   0.664   2.977  0.1938 -0.1393  0.3039
   81_EC     C6  486   3.943   0.531   3.037 -0.2065 -0.3222  0.2104
   82_EC     O1  487   0.656   3.048   2.253 -0.1286  0.0898  0.3152
   82_EC     C2  488   0.710   3.154   2.239 -0.4016  0.2351  0.3542
   82_EC     O3  489   0.844   3.156   2.218 -0.4151 -0.1511  0.2333
   82_EC     O4  490   0.665   3.235   2.140 -0.0321  0.0333  0.0209
   82_EC     C5  491   0.882   3.292   2.195 -0.1371 -0.3459 -0.4920
   82_EC     C6  492   0.750   3.349   2.147 -0.0236  0.0513 -0.3332
   83_EC     O1  493   2.466   3.124   2.626 -0.4045 -0.1848 -0.1003
   83_EC     C2  494   2.381   3.184   2.684 -0.3623 -0.5180  0.3095
   83_EC     O3  495   2.404   3.290   2.767 -0.6898 -0.6095  0.5225
   83_EC     O4  496   2.275   3.120   2.742 -0.7348  0.1049  0.3292
   83_EC     C5  497   2.274   3.347   2.782 -0.2890  0.4277  0.1803
   83_EC     C6  498   2.191   3.220   2.799 -0.0667  0.3707  0.8592
   84_EC     O1  499   3.760   1.377   0.212 -0.1077 -0.3163 -0.4897
   84_EC     C2  500   3.845   1.299   0.245 -0.1511 -0.3092 -0.3616
   84_EC     O3  501   3.811   1.186   0.313 -0.0730  0.1738  0.4940
   84_EC     O4  502   3.943   1.348   0.325 -0.5327 -0.1491  0.0135
   84_EC     C5  503   3.940   1.130   0.339 -0.1115  0.0078  0.3340
   84_EC     C6  504   0.061   1.244   0.331 -0.2536  0.0640 -0.7402
   85_EC     O1  505   2.279   0.535   0.610 -0.1762  0.2854  1.0251
   85_EC     C2  506   2.215   0.625   0.564  0.1480 -0.1282 -0.2641
   85_EC     O3  507   2.081   0.634   0.586  0.1425  0.0536 -0.3705
   85_EC     O4  508   2.233   0.674   0.438  0.0170  0.0284 -0.2223
   85_EC     C5  509   2.034   0.748   0.514  0.4678  0.2111 -0.3333
   85_EC     C6  510   2.146   0.785   0.418  0.5110  0.4240 -0.2027
   86_EC     O1  511   1.880   1.751   1.629 -0.1249  0.5471 -0.4291
   86_EC     C2  512   1.788   1.801   1.571 -0.2749  0.3523 -0.3591
   86_EC     O3  513   1.661   1.752   1.575 -0.2088  0.1898 -0.2708
   86_EC     O4  514   1.766   1.935   1.582 -0.3569  0.3209 -0.1356
   86_EC     C5  515   1.595   1.824   1.471  0.0674  0.1774 -0.4569
   86_EC     C6  516   1.658   1.960   1.491 -0.3160  0.3170 -0.1848
   87_EC     O1  517   0.775   3.552   2.560 -0.0596 -0.2486 -0.3572
   87_EC     C2  518   0.669   3.500   2.538 -0.1099 -0.0924 -0.4866
   87_EC     O3  519   0.653   3.419   2.430  0.1184 -0.0863 -0.5238
   87_EC     O4  520   0.574   3.488   2.635  0.2635  0.0369 -0.0996
   87_EC     C5  521   0.510   3.418   2.423  0.0796 -0.1871  0.2281
   87_EC     C6  522   0.459   3.440   2.565  0.0158  0.2818  0.1357
   88_EC     O1  523   3.043   2.188   1.642 -0.0843 -0.1259 -0.0971
   88_EC     C2  524   3.019   2.237   1.535 -0.0891 -0.2144 -0.1370
   88_EC     O3  525   3.086   2.349   1.495 -0.0878 -0.1359  0.0827
   88_EC     O4  526   2.894   2.241   1.483 -0.0809  0.0896 -0.1391
   88_EC     C5  527   3.039   2.374   1.362  0.5995 -0.2023 -0.1737
   88_EC     C6  528   2.896   2.325   1.368  0.4262  0.3171  0.0337
   89_EC     O1  529   0.663   0.365   1.034 -0.4630 -0.1651 -0.3531
   89_EC     C2  530   0.681   0.483   1.044  0.3368 -0.3072 -0.0810
   89_EC     O3  531   0.789   0.535   0.980  0.5934  0.0327  0.6120
   89_EC     O4  532   0.679   0.551   1.162 -0.5951 -0.1457 -0.1825
   89_EC     C5  533   0.767   0.675   0.992  0.5409  0.0998 -0.1888
   89_EC     C6  534   0.718   0.686   1.136  0.0654 -0.3541 -0.3142
   90_EC     O1  535   1.947   0.902   2.546  0.0528 -0.5132 -0.6245
   90_EC     C2  536   1.852   0.844   2.591 -0.1348  0.3515  0.1217
   90_EC     O3  537   1.752   0.810   2.506 -0.1642  0.5807  0.0642
   90_EC     O4  538   1.814   0.834   2.722  0.1711 -0.2255  0.1683
   90_EC     C5  539   1.634   0.797   2.587 -0.1314  0.3055  0.0693
   90_EC     C6  540   1.701   0.747   2.714  0.2404 -0.2722 -0.3483
   91_EC     O1  541   3.326   2.344   0.470 -0.2610 -0.0297  0.5154
   91_EC     C2  542   3.317   2.226   0.488 -0.0556 -0.0831  0.2783
   91_EC     O3  543   3.329   2.134   0.389 -0.0265  0.0737  0.1344
   91_EC     O4  544   3.389   2.177   0.593 -0.0578  0.1613  0.3950
   91_EC     C5  545   3.312   2.012   0.462  0.3043 -0.2961 -0.3973
   91_EC     C6  546   3.396   2.035   0.587  0.3043  0.2101 -0.4880
   92_EC     O1  547   3.829   2.252   1.796  0.0456  0.0378 -0.0230
   92_EC     C2  548   3.825   2.345   1.871  0.5078  0.3561 -0.3918
   92_EC     O3  549   3.906   2.356   1.980 -0.2039  0.4088  0.1399
   92_EC     O4  550   3.833   2.470   1.816  0.0425  0.7526  0.4208
   92_EC     C5  551   3.871   2.477   2.046  0.3949  0.3995  0.4827
   92_EC     C6  552   3.815   2.556   1.928 -0.7242  0.1106  0.8068
   93_EC     O1  553   0.732   3.623   0.365  0.9061 -0.0255  0.0910
   93_EC     C2  554   0.771   3.737   0.367  0.3873  0.1870 -1.0556
   93_EC     O3  555   0.895   3.772   0.411  0.1040 -0.3557  0.2453
   93_EC     O4  556   0.713   3.849   0.316 -0.2448  0.3342 -0.0339
   93_EC     C5  557   0.908   3.915   0.411  0.2085 -0.3658  0.2410
   93_EC     C6  558   0.765   3.959   0.391  0.3254 -0.0376  0.1290
   94_EC     O1  559   0.560   1.127   2.910 -0.7432  0.6030 -0.2635
   94_EC     C2  560   0.502   1.028   2.876  0.2721 -0.2248  0.3373
   94_EC     O3  561   0.540   0.903   2.912  0.3779 -0.2655  0.0847
   94_EC     O4  562   0.378   1.027   2.819  0.6288  0.0505 -0.4605
   94_EC     C5  563   0.423   0.822   2.894 -0.2133  0.3697  0.9837
   94_EC     C6  564   0.352   0.892   2.780  0.2850 -0.1304  0.3617
   95_EC     O1  565   0.498   3.938   1.478  0.8046  0.2461  0.1063
   95_EC     C2  566   0.557   3.954   1.374 -0.0852  0.0974 -0.4307
   95_EC     O3  567   0.587   0.098   1.326  0.2758  0.0528 -0.3206
   95_EC     O4  568   0.639   3.858   1.323  0.1001 -0.0188  0.0713
   95_EC     C5  569   0.687   0.079   1.225  0.5987 -0.2017  0.0438
   95_EC     C6  570   0.676   3.910   1.195 -0.0245 -0.1445 -0.0155
   96_EC     O1  571   2.469   1.743   2.019  0.0348 -0.3706 -0.2405
   96_EC     C2  572   2.373   1.746   1.948  0.1514  0.1652 -0.3839
   96_EC     O3  573   2.267   1.828   1.971  0.2078  0.2014 -0.2520
   96_EC     O4  574   2.379   1.746   1.812 -0.0632 -0.2592 -0.3960
   96_EC     C5  575   2.163   1.795   1.878  0.0279  0.0081  0.0164
   96_EC     C6  576   2.245   1.737   1.763 -0.2292 -0.5455  0.1076
   97_EC     O1  577   3.145   3.196   2.635 -0.0200  0.5520  0.0883
   97_EC     C2  578   3.255   3.234   2.665  0.3092 -0.2915 -0.0280
   97_EC     O3  579   3.276   3.361   2.710 -0.0551 -0.2692  0.0857
   97_EC     O4  580   3.370   3.211   2.597  0.4623 -0.1023  0.1636
   97_EC     C5  581   3.409   3.356   2.763  0.0705  0.3586 -0.1669
   97_EC     C6  582   3.475   3.241   2.689  0.4664  0.4984 -0.0338
   98_EC     O1  583   0.232   2.674   0.032  0.0093 -0.2525 -0.2487
   98_EC     C2  584   0.128   2.665   3.951 -0.3301 -0.0527  0.3177
   98_EC     O3  585   0.036   2.566   3.966 -0.1671 -0.3522 -0.5679
   98_EC     O4  586   0.050   2.768   3.909 -0.7843 -0.1624  0.8880
   98_EC     C5  587   3.888   2.597   3.911 -0.1264 -0.4751 -0.7296
   98_EC     C6  588   3.924   2.718   3.827 -0.0392 -0.0844 -0.1318
   99_EC     O1  589   2.728   0.693   1.836  0.7255 -0.0731  0.2066
   99_EC     C2  590   2.729   0.766   1.930  0.1632 -0.1103  0.2493
   99_EC     O3  591   2.677   0.891   1.939  0.1035 -0.1298  0.1706
   99_EC     O4  592   2.847   0.781   1.998  0.2555  0.0899  0.0440
   99_EC     C5  593   2.697   0.929   2.075 -0.1766 -0.3681  0.2783
   99_EC     C6  594   2.822   0.855   2.118 -0.0345 -0.1967  0.1606
  100_EC     O1  595   1.212   0.608   2.046 -0.0857 -0.0199  0.1694
  100_EC     C2  596   1.279   0.542   1.971 -0.4420 -0.0022 -0.1667
  100_EC     O3  597   1.409   0.509   1.989 -0.3698  0.1644 -0.3854
  100_EC     O4  598   1.247   0.512   1.842 -0.0430  0.8964 -0.4789
  100_EC     C5  599   1.443   0.401   1.902 -0.3812  0.0324 -0.2277
  100_EC     C6  600   1.367   0.460   1.784 -0.2708  0.1100 -0.2604
  101_EC     O1  601   2.732   0.978   0.293 -0.1706  0.1659 -0.3220
  101_EC     C2  602   2.786   0.970   0.187  0.0945 -0.3964 -0.1471
  101_EC     O3  603   2.729   0.898   0.086 -0.1674  0.2096 -0.4318
  101_EC     O4  604   2.829   1.082   0.123 -0.1530 -0.1512  0.1217
  101_EC     C5  605   2.835   0.896   3.968  0.6567 -0.2210  0.4743
  101_EC     C6  606   2.892   1.036   0.004 -0.0961  0.1337  0.0403
  102_EC     O1  607   2.492   1.935   0.325 -0.4695 -0.2581 -0.0132
  102_EC     C2  608   2.578   1.853   0.303 -0.1393  0.1185 -0.1453
  102_EC     O3  609   2.603   1.745   0.382  0.0414  0.5514  0.3994
  102_EC     O4  610   2.701   1.893   0.263  0.0261 -0.4123 -0.1686
  102_EC     C5  611   2.704   1.670   0.312 -0.3296  0.5353 -0.1254
  102_EC     C6  612   2.792   1.782   0.260  0.1317 -0.3118 -1.2057
  103_EC     O1  613   3.135   0.156   0.598 -0.0788  0.1783  0.0580
  103_EC     C2  614   3.238   0.145   0.537  0.1271  0.2404  0.3944
  103_EC     O3  615   3.267   0.056   0.439  0.3197 -0.3823  1.0127
  103_EC     O4  616   3.359   0.183   0.585  0.2269 -0.0311  0.3557
  103_EC     C5  617   3.370   0.121   0.364 -0.7231  0.4805  0.3146
  103_EC     C6  618   3.454   0.175   0.478 -0.0136 -0.2772  0.1582
  104_EC     O1  619   0.952   2.240   1.266 -0.0854 -0.4878  0.0990
  104_EC     C2  620   0.852   2.300   1.238  0.2234  0.0532  0.1307
  104_EC     O3  621   0.821   2.419   1.295 -0.2451 -0.0476  0.0876
  104_EC     O4  622   0.819   2.320   1.108  0.2547  0.0102  0.1162
  104_EC     C5  623   0.691   2.448   1.242 -0.3011 -0.3274  0.0710
  104_EC     C6  624   0.697   2.393   1.100  0.3785  0.1956 -0.1090
  105_EC     O1  625   2.052   2.341   1.520 -0.1538  0.6468 -0.0582
  105_EC     C2  626   1.985   2.311   1.425  0.2691 -0.3443 -0.0533
  105_EC     O3  627   1.901   2.205   1.410  0.0859 -0.2284  0.1441
  105_EC     O4  628   1.983   2.376   1.306  0.0171  0.2658  0.2820
  105_EC     C5  629   1.870   2.175   1.273 -0.5948 -0.4174  0.3347
  105_EC     C6  630   1.872   2.322   1.233 -0.2355 -0.2289  1.0248
  106_EC     O1  631   3.013   3.266   1.045  0.5130 -0.1246  0.6336
  106_EC     C2  632   2.897   3.289   1.062  0.3888 -0.0227 -0.3027
  106_EC     O3  633   2.853   3.357   1.171 -0.3013  0.1537 -0.6852
  106_EC     O4  634   2.807   3.288   0.960 -0.2648  0.0737  0.2627
  106_EC     C5  635   2.713   3.385   1.158 -0.2946  0.6509  0.1920
  106_EC     C6  636   2.683   3.317   1.025 -0.1633  0.0751  0.4553
  107_EC     O1  637   3.323   2.905   1.593 -0.3508 -0.1908 -0.1124
  107_EC     C2  638   3.337   2.834   1.497  0.2528  0.3578 -0.4347
  107_EC     O3  639   3.272   2.716   1.480  0.9344 -0.0843  0.0010
  107_EC     O4  640   3.458   2.818   1.437  0.3759 -0.1704 -0.0506
  107_EC     C5  641   3.300   2.676   1.346  0.5203 -0.1649 -0.0613
  107_EC     C6  642   3.424   2.756   1.312  0.0924  0.4198 -0.2705
  108_EC     O1  643   2.717   0.254   1.164 -0.3704  0.4384  0.2710
  108_EC     C2  644   2.762   0.154   1.214 -0.6382  0.1849  0.0103
  108_EC     O3  645   2.792   0.158   1.346  0.5868 -0.3707 -0.2404
  108_EC     O4  646   2.736   0.023   1.191 -0.1185  0.0427  0.2250
  108_EC     C5  647   2.881   0.049   1.371  0.5599 -0.2238  0.5347
  108_EC     C6  648   2.847   3.936   1.254  0.1308  0.4054  0.1640
  109_EC     O1  649   2.987   3.411   2.191 -0.0856  0.0285  0.3229
  109_EC     C2  650   2.941   3.314   2.246 -0.5013  0.2003  0.2752
  109_EC     O3  651   2.825   3.320   2.318 -0.1815 -0.1155  0.8204
  109_EC     O4  652   2.950   3.187   2.199  0.2030  0.2720  0.2124
  109_EC     C5  653   2.799   3.189   2.370 -0.5013 -0.4258 -0.0949
  109_EC     C6  654   2.893   3.097   2.294  0.1224  0.1090  0.0085
  110_EC     O1  655   1.119   1.020   1.773 -0.7604  0.3076 -0.2400
  110_EC     C2  656   1.064   0.919   1.808 -0.2129 -0.0838 -0.4782
  110_EC     O3  657   1.047   0.811   1.728 -0.2725 -0.1993 -0.3098
  110_EC     O4  658   0.951   0.932   1.884  0.3814  0.5172  0.3217
  110_EC     C5  659   0.968   0.713   1.796 -0.8345  0.2732 -0.2736
  110_EC     C6  660   0.904   0.798   1.905 -0.5524  0.7113 -0.4506
  111_EC     O1  661   3.424   1.705   0.569  0.0363  0.2082 -0.1342
  111_EC     C2  662   3.451   1.589   0.573 -0.2447  0.1492  0.1155
  111_EC     O3  663   3.486   1.519   0.684 -0.1863 -0.1387 -0.0822
  111_EC     O4  664   3.514   1.526   0.470 -0.5476 -0.0616  0.0568
  111_EC     C5  665   3.480   1.381   0.646  0.5106 -0.2365  0.1609
  111_EC     C6  666   3.504   1.386   0.496  0.1871 -0.1098  0.1131
  112_EC     O1  667   0.071   2.751   1.994 -0.2132 -0.1070  0.0556
  112_EC     C2  668   0.139   2.810   2.074  0.0534 -0.0749 -0.1961
  112_EC     O3  669   0.095   2.875   2.185 -0.0096  0.6863 -0.6564
  112_EC     O4  670   0.273   2.830   2.072  0.0395  0.0143 -0.2357
  112_EC     C5  671   0.204   2.920   2.267 -0.0484 -0.4240  0.0358
  112_EC     C6  672   0.299   2.946   2.152 -0.2261 -0.0639 -0.0339
  113_EC     O1  673   3.777   1.708   0.724  0.0986  0.1696  0.9762
  113_EC     C2  674   3.850   1.626   0.676 -0.0191  0.2359  0.6849
  113_EC     O3  675   3.881   1.517   0.752  0.2983  0.0927  0.3537
  113_EC     O4  676   3.968   1.651   0.614 -0.3930 -0.1316 -0.1980
  113_EC     C5  677   3.940   1.427   0.658  0.0238  0.1197  0.1508
  113_EC     C6  678   0.037   1.524   0.570 -0.1519 -0.0431 -0.1842
  114_EC     O1  679   0.593   0.062   1.995 -0.1569 -0.1718 -0.3326
  114_EC     C2  680   0.601   0.180   1.973  0.0647 -0.0629  0.2878
  114_EC     O3  681   0.712   0.257   1.975 -0.1243  0.2118  0.2730
  114_EC     O4  682   0.528   0.236   1.872  0.3376 -0.1984  0.0153
  114_EC     C5  683   0.670   0.394   1.967 -0.2599  0.1317 -0.4061
  114_EC     C6  684   0.532   0.374   1.906 -0.2502 -0.0871 -0.3602
  115_EC     O1  685   0.238   2.370   3.828 -0.1160  0.1779 -0.2699
  115_EC     C2  686   0.184   2.269   3.863  0.3489  0.0388  0.0453
  115_EC     O3  687   0.232   2.201   3.971  0.0678 -0.3225 -0.0546
  115_EC     O4  688   0.151   2.173   3.773  0.0382 -0.2369  0.4481
  115_EC     C5  689   0.142   2.091   0.004  0.0189 -0.2373  0.4327
  115_EC     C6  690   0.102   2.056   3.839 -0.4027 -0.0230  0.4981
  116_EC     O1  691   2.279   3.352   3.682  0.3537  0.3712 -0.3912
  116_EC     C2  692   2.276   3.444   3.759 -0.4565  0.0915 -0.0800
  116_EC     O3  693   2.316   3.438   3.889 -0.0624 -0.0060 -0.2046
  116_EC     O4  694   2.188   3.548   3.752 -0.5267  0.0052 -0.4613
  116_EC     C5  695   2.242   3.533   3.966 -0.3831  0.0918 -0.6285
  116_EC     C6  696   2.211   3.638   3.860  0.2357  0.1608 -0.7444
  117_EC     O1  697   1.390   3.270   2.789  0.3838 -0.1430 -0.1751
  117_EC     C2  698   1.444   3.303   2.687  0.2932  0.0273 -0.1689
  117_EC     O3  699   1.578   3.314   2.663  0.3138  0.2931  0.0690
  117_EC     O4  700   1.395   3.276   2.563 -0.1012 -0.3618  0.0720
  117_EC     C5  701   1.586   3.402   2.551  0.4966 -0.1327 -0.2554
  117_EC     C6  702   1.462   3.363   2.472 -0.0213  0.0015  0.4778
  118_EC     O1  703   3.384   1.422   2.174  0.3423 -0.0848  0.0718
  118_EC     C2  704   3.418   1.353   2.266  0.0420 -0.5781 -0.1871
  118_EC     O3  705   3.509   1.385   2.361 -0.4060 -0.4184  0.1941
  118_EC     O4  706   3.369   1.227   2.284 -0.4912 -0.3367  0.0935
  118_EC     C5  707   3.508   1.280   2.458 -0.0392 -0.0566  0.6008
  118_EC     C6  708   3.459   1.162   2.374 -0.1519  0.2720  0.1992
  119_EC     O1  709   1.491   0.853   3.841  0.7694 -0.0237  0.1449
  119_EC     C2  710   1.500   0.838   3.722 -0.4795 -0.0256  0.0406
  119_EC     O3  711   1.421   0.764   3.640 -0.0602 -0.2837 -0.1296
  119_EC     O4  712   1.589   0.900   3.641 -0.0059 -0.4087  0.2623
  119_EC     C5  713   1.459   0.776   3.503  0.1465  0.0165 -0.0460
  119_EC     C6  714   1.543   0.903   3.505 -0.0764  0.1579  0.2966
  120_EC     O1  715   0.681   1.307   3.735  0.2893 -0.0199  0.7562
  120_EC     C2  716   0.701   1.419   3.774 -0.3510  0.3676  0.0022
  120_EC     O3  717   0.787   1.497   3.704  0.1106 -0.1297  0.0062
  120_EC     O4  718   0.753   1.440   3.898 -0.2498 -0.3961  0.0948
  120_EC     C5  719   0.762   1.624   3.765  0.4132 -0.0974  0.0630
  120_EC     C6  720   0.749   1.583   3.911  0.5516 -0.3560  0.0027
  121_EC     O1  721   3.417   2.089   0.052 -0.1871  0.1048 -0.1934
  121_EC     C2  722   3.302   2.110   0.082 -0.3053 -0.0702 -0.5203
  121_EC     O3  723   3.246   2.233   0.091 -0.1700 -0.0352 -0.1187
  121_EC     O4  724   3.212   2.011   0.108 -0.0377 -0.2751 -0.3637
  121_EC     C5  725   3.132   2.211   0.175 -0.6581  0.2795 -0.6827
  121_EC     C6  726   3.086   2.072   0.134  0.1016 -0.3106  0.4039
  122_EC     O1  727   2.263   0.248   2.532 -0.3958 -0.3893 -0.8157
  122_EC     C2  728   2.349   0.246   2.448  0.3702  0.2813 -0.0494
  122_EC     O3  729   2.328   0.300   2.325  0.2191 -0.0058 -0.1478
  122_EC     O4  730   2.453   0.159   2.451  0.2603  0.1594  0.3270
  122_EC     C5  731   2.438   0.254   2.246  0.2011  0.1977 -0.2913
  122_EC     C6  732   2.540   0.211   2.350 -0.1240  0.3898  0.1129
  123_EC     O1  733   2.474   3.424   2.463  0.1527  0.4808 -0.2820
  123_EC     C2  734   2.482   3.392   2.347  0.1127 -0.2826 -0.0827
  123_EC     O3  735   2.374   3.353   2.275 -0.2499  0.3703  0.0962
  123_EC     O4  736   2.547   3.470   2.256  0.1870  0.2333  0.4022
  123_EC     C5  737   2.413   3.329   2.140 -0.0638 -0.0910  0.2315
  123_EC     C6  738   2.540   3.410   2.126 -0.0432 -0.0681  0.5507
  124_EC     O1  739   1.421   1.855   1.192  0.7616 -0.0870  0.1426
  124_EC     C2  740   1.382   1.770   1.118 -0.0676  0.2600  0.1715
  124_EC     O3  741   1.466   1.682   1.058 -0.0638  0.5202 -0.2096
  124_EC     O4  742   1.274   1.788   1.037 -0.1791 -0.1763  0.2199
  124_EC     C5  743   1.382   1.592   0.985 -0.0195  0.0765  0.2779
  124_EC     C6  744   1.244   1.655   0.993 -0.0942  0.0148 -0.4368
  125_EC     O1  745   3.229   2.965   0.047 -0.1536 -0.0608 -0.3676
  125_EC     C2  746   3.146   2.924   3.949 -0.1881 -0.4789 -0.1078
  125_EC     O3  747   3.061   3.003   3.878 -0.2986 -0.2896  0.2274
  125_EC     O4  748   3.172   2.817   3.869  0.1039 -0.2014 -0.3825
  125_EC     C5  749   2.973   2.907   3.819 -0.2319 -0.2096 -0.0066
  125_EC     C6  750   3.046   2.774   3.816 -0.0611 -0.1143 -0.0672
  126_EC     O1  751   0.790   0.894   2.714 -0.7088 -0.1972  0.3520
  126_EC     C2  752   0.739   0.901   2.606 -0.3745 -0.5785  0.1638
  126_EC     O3  753   0.606   0.926   2.595 -0.1716  0.6060  0.2426
  126_EC     O4  754   0.770   0.834   2.492  0.4394  0.5200 -0.2825
  126_EC     C5  755   0.584   0.974   2.462  0.1576 -0.2217 -0.1174
  126_EC     C6  756   0.700   0.907   2.391  0.1048  0.0074 -0.4220
  127_EC     O1  757   0.312   3.601   3.954 -0.1998  0.2495  0.8728
  127_EC     C2  758   0.282   3.712   3.920  0.3247  0.0214 -0.3905
  127_EC     O3  759   0.328   3.821   0.009 -0.0286  0.0419 -0.1795
  127_EC     O4  760   0.283   3.763   3.793 -0.7340  0.2337 -0.3225
  127_EC     C5  761   0.263   3.938   3.936 -0.1760 -0.0210 -0.1368
  127_EC     C6  762   0.220   3.891   3.798 -0.8438  0.1685  0.0062
  128_EC     O1  763   1.348   0.355   1.459 -0.4721 -0.2301 -0.5211
  128_EC     C2  764   1.404   0.370   1.354 -0.0945  0.4582 -0.2252
  128_EC     O3  765   1.346   0.406   1.236 -0.2503  0.0213 -0.2830
  128_EC     O4  766   1.495   0.275   1.319 -0.5713 -0.0898  0.0158
  128_EC     C5  767   1.449   0.407   1.137 -0.0863  0.0226 -0.1117
  128_EC     C6  768   1.553   0.311   1.193 -0.3439 -0.1256  0.1104
  129_EC     O1  769   3.438   0.100   0.024 -0.5953  0.5507  0.0303
  129_EC     C2  770   3.547   0.149   0.013 -0.1573 -0.2365  0.7542
  129_EC     O3  771   3.655   0.080   0.058 -0.0031 -0.3838  0.1673
  129_EC     O4  772   3.564   0.283   0.024 -0.3371 -0.1826  0.3884
  129_EC     C5  773   3.762   0.173   0.036 -0.1399 -0.4516 -0.8183
  129_EC     C6  774   3.695   0.291   3.946 -0.4205 -0.0044  0.2178
  130_EC     O1  775   1.733   2.625   1.354 -0.8377 -0.8290 -0.7091
  130_EC     C2  776   1.620   2.623   1.394 -0.4681 -0.1241  0.4191
  130_EC     O3  777   1.552   2.736   1.426 -0.0040  0.2346  0.1427
  130_EC     O4  778   1.522   2.547   1.338 -0.4893  0.2810 -0.1016
  130_EC     C5  779   1.427   2.702   1.486  0.0787 -0.1955  0.0720
  130_EC     C6  780   1.408   2.565   1.423 -0.3882 -0.1587  0.1298
  131_EC     O1  781   0.669   0.195   3.935  0.1272  0.4367 -0.0675
  131_EC     C2  782   0.664   0.076   3.925 -0.3385  0.4182  0.3504
  131_EC     O3  783   0.761   0.011   3.856 -0.0383  0.6751  0.5301
  131_EC     O4  784   0.648   3.974   0.056  0.6120 -0.0323  0.1608
  131_EC     C5  785   0.735   3.849   3.865 -0.0488  0.6694  0.4126
  131_EC     C6  786   0.640   3.841   0.006 -0.6229  0.1193 -0.0749
  132_EC     O1  787   3.563   0.189   2.109 -0.3969  0.0257  0.5886
  132_EC     C2  788   3.541   0.082   2.061 -0.3269 -0.1367  0.9153
  132_EC     O3  789   3.635   3.964   2.081  0.4126  0.2839 -0.3623
  132_EC     O4  790   3.424   0.017   2.082 -0.6024 -0.1211 -0.4522
  132_EC     C5  791   3.588   3.848   2.012  0.4282  0.2135 -0.2550
  132_EC     C6  792   3.438   3.874   2.008  0.4153  0.0947 -0.6215
  133_EC     O1  793   0.899   1.098   0.172 -0.1360 -0.1953 -0.3635
  133_EC     C2  794   0.906   1.212   0.208  0.0128 -0.1091 -0.6620
  133_EC     O3  795   0.832   1.257   0.314  0.0240  0.0428 -0.7180
  133_EC     O4  796   0.925   1.323   0.132 -0.0050  0.2134 -0.1976
  133_EC     C5  797   0.863   1.394   0.338  0.1258 -0.1471  0.2540
  133_EC     C6  798   0.948   1.435   0.219 -0.2971  0.0962  0.0324
  134_EC     O1  799   1.870   3.024   0.427  0.5905 -0.2812 -0.3549
  134_EC     C2  800   1.904   3.139   0.423  0.1878 -0.1529 -0.2335
  134_EC     O3  801   1.849   3.223   0.331 -0.2972 -0.2612 -0.0397
  134_EC     O4  802   2.036   3.169   0.406  0.1691 -0.1943 -0.4548
  134_EC     C5  803   1.909   3.352   0.341  0.1696 -0.4669 -0.1857
  134_EC     C6  804   2.038   3.311   0.411  0.1568 -0.2108 -0.0140
  135_EC     O1  805   3.543   2.725   1.862 -0.2180  0.0410 -1.0716
  135_EC     C2  806   3.476   2.629   1.832 -0.0052 -0.2841 -0.5257
  135_EC     O3  807   3.347   2.632   1.790 -0.1864 -0.9215 -0.0161
  135_EC     O4  808   3.502   2.509   1.890 -0.3520  0.1807  0.6021
  135_EC     C5  809   3.304   2.500   1.756 -0.3947 -0.7753 -0.3232
  135_EC     C6  810   3.404   2.420   1.837 -0.1749  0.1471  0.3333
  136_EC     O1  811   0.879   2.695   1.857  0.6984 -0.0329  0.1066
  136_EC     C2  812   0.846   2.648   1.752  0.6179 -0.2208  0.2165
  136_EC     O3  813   0.855   2.515   1.723  0.5282 -0.2289  0.2239
  136_EC     O4  814   0.770   2.712   1.659  0.0173 -0.6654  0.3898
  136_EC     C5  815   0.863   2.517   1.580  0.1816 -0.0147  0.2057
  136_EC     C6  816   0.759   2.622   1.548  0.1428 -0.1320 -0.0590
  137_EC     O1  817   2.220   1.844   3.083  0.1696 -0.0283 -0.1956
  137_EC     C2  818   2.200   1.765   2.995  0.0056  0.0102 -0.1937
  137_EC     O3  819   2.260   1.782   2.874 -0.0186  0.2839 -0.1662
  137_EC     O4  820   2.195   1.631   3.017 -0.1457  0.0432 -0.0230
  137_EC     C5  821   2.212   1.673   2.795 -0.2411  0.4685 -0.2891
  137_EC     C6  822   2.156   1.570   2.893  0.1871  0.2773 -0.2434
  138_EC     O1  823   2.411   2.983   2.096  0.3572  0.4428  0.8330
  138_EC     C2  824   2.505   2.972   2.022 -0.3526  0.3677 -0.0801
  138_EC     O3  825   2.607   3.062   2.016 -0.1025  0.1074  0.2108
  138_EC     O4  826   2.495   2.912   1.900 -0.2831  0.4969 -0.1505
  138_EC     C5  827   2.708   2.999   1.936  0.0940  0.9434 -0.2185
  138_EC     C6  828   2.621   2.925   1.835 -0.0742  0.4963  0.2498
  139_EC     O1  829   3.256   2.102   3.732 -0.2358  0.5524  0.0981
  139_EC     C2  830   3.151   2.045   3.724 -0.0650  0.1324  0.8394
  139_EC     O3  831   3.137   1.910   3.742 -0.2012  0.0946  0.4449
  139_EC     O4  832   3.031   2.102   3.756 -0.1024  0.5233  0.0139
  139_EC     C5  833   3.019   1.884   3.664 -0.1043 -0.4554  0.4796
  139_EC     C6  834   2.944   2.015   3.684  0.4913 -0.0211 -0.0627
  140_EC     O1  835   2.174   1.374   0.096  0.3047 -0.2253  0.3826
  140_EC     C2  836   2.139   1.486   0.074 -0.3607 -0.5573 -0.2966
  140_EC     O3  837   2.039   1.558   0.133 -0.2367 -0.1460 -0.5823
  140_EC     O4  838   2.219   1.565   3.975 -0.4791 -0.1102  0.0370
  140_EC     C5  839   2.040   1.688   0.074 -0.2699 -0.1065 -0.4954
  140_EC     C6  840   2.178   1.702   0.011 -0.7081 -0.0068 -1.4575
  141_EC     O1  841   2.382   1.039   3.781 -0.5934 -0.1164 -0.4117
  141_EC     C2  842   2.306   1.121   3.738 -0.7399 -0.1776 -0.2668
  141_EC     O3  843   2.279   1.127   3.605 -0.1703 -0.3650 -0.3912
  141_EC     O4  844   2.324   1.252   3.772 -0.1640 -0.4059  0.3250
  141_EC     C5  845   2.177   1.227   3.604  0.1188 -0.0731 -0.6024
  141_EC     C6  846   2.196   1.304   3.734  0.0506 -0.4046 -0.3953
  142_EC     O1  847   1.047   2.440   3.929  0.3275  0.5069  0.3368
  142_EC     C2  848   1.002   2.551   3.939 -0.1393  0.3549 -0.0530
  142_EC     O3  849   0.881   2.587   3.888 -0.2803 -0.0766 -0.0292
  142_EC     O4  850   1.027   2.631   0.068  0.0197 -0.5382  0.5919
  142_EC     C5  851   0.871   2.727   3.912  0.1611 -0.0602  0.0722
  142_EC     C6  852   0.991   2.761   0.021  0.6605 -0.7031 -0.3630
  143_EC     O1  853   1.881   2.860   3.765 -0.8302  0.0672  0.3030
  143_EC     C2  854   1.962   2.924   3.703 -0.3099 -0.6319  0.2515
  143_EC     O3  855   2.097   2.905   3.708 -0.1454  0.5304  0.5689
  143_EC     O4  856   1.950   3.049   3.651  0.4739 -0.6729 -0.0493
  143_EC     C5  857   2.169   3.003   3.633  0.0304 -0.1884 -0.2201
  143_EC     C6  858   2.056   3.070   3.558  0.1217 -0.1725 -0.3424
  144_EC     O1  859   2.977   2.023   0.431 -0.2609 -0.2924 -0.5460
  144_EC     C2  860   2.897   2.112   0.440 -0.0155 -0.1344  0.0861
  144_EC     O3  861   2.912   2.208   0.535 -0.2891  0.0219 -0.0297
  144_EC     O4  862   2.836   2.175   0.337 -0.1574 -0.1362  0.1683
  144_EC     C5  863   2.796   2.291   0.531  0.1025  0.5799  0.0245
  144_EC     C6  864   2.739   2.264   0.392  0.4437  0.7384 -0.1478
  145_EC     O1  865   2.918   1.874   1.430  0.0094  0.1650 -0.2858
  145_EC     C2  866   2.974   1.778   1.473  0.1797  0.1206 -0.5999
  145_EC     O3  867   3.109   1.770   1.485  0.1154 -0.4054 -0.1477
  145_EC     O4  868   2.913   1.698   1.566  0.4927  0.4987 -0.0628
  145_EC     C5  869   3.136   1.658   1.570 -0.1825 -0.4247 -0.0795
  145_EC     C6  870   3.002   1.586   1.577 -0.3224 -0.1983 -0.4530
  146_EC     O1  871   2.405   3.280   1.292  0.5617  0.0019  0.5451
  146_EC     C2  872   2.334   3.367   1.249 -0.1331 -0.5465  0.5621
  146_EC     O3  873   2.238   3.430   1.322 -0.2335  0.1476 -0.1625
  146_EC     O4  874   2.383   3.465   1.170 -0.3565 -0.5328  0.4390
  146_EC     C5  875   2.161   3.489   1.216 -0.3177 -0.1533 -0.2698
  146_EC     C6  876   2.267   3.528   1.115  0.1187  0.2892  0.3487
  147_EC     O1  877   3.293   1.150   0.887 -0.0346  0.6443 -0.0016
  147_EC     C2  878   3.357   1.093   0.971 -0.0705  0.4555 -0.1013
  147_EC     O3  879   3.439   1.164   1.053  0.0710 -0.1320  0.2719
  147_EC     O4  880   3.430   0.981   0.945 -0.4715  0.1479  0.0837
  147_EC     C5  881   3.475   1.073   1.158  0.4308  0.0691  0.3244
  147_EC     C6  882   3.468   0.944   1.078  0.1970  0.3155 -0.0570
  148_EC     O1  883   0.039   0.316   0.885  0.0870  0.0835  0.5912
  148_EC     C2  884   0.060   0.396   0.799  0.4619 -0.3178  0.3047
  148_EC     O3  885   0.179   0.429   0.741  0.3300  0.3198  0.3884
  148_EC     O4  886   3.933   0.446   0.731  0.7218 -0.4279 -0.1891
  148_EC     C5  887   0.143   0.500   0.622 -0.1640  0.1141  0.4139
  148_EC     C6  888   0.006   0.556   0.657 -0.3425  0.0769 -0.2173
  149_EC     O1  889   0.833   1.962   3.124  0.1301  0.2143  0.1619
  149_EC     C2  890   0.883   1.946   3.016 -0.6673 -0.8721 -0.0675
  149_EC     O3  891   1.009   1.894   3.005 -0.1725  0.3828 -0.4777
  149_EC     O4  892   0.836   1.986   2.895  0.4397 -0.2153 -0.2960
  149_EC     C5  893   1.026   1.871   2.865  0.3891  0.5964 -0.4475
  149_EC     C6  894   0.950   1.990   2.809  0.2025  0.4146 -0.5839
  150_EC     O1  895   0.949   3.242   1.465  0.4720 -0.2953 -0.2166
  150_EC     C2  896   1.012   3.139   1.466  0.2800 -0.4106  0.5939
  150_EC     O3  897   1.029   3.080   1.345  0.3071  0.5204  0.1295
  150_EC     O4  898   0.989   3.035   1.550 -0.0637 -0.4404  0.4655
  150_EC     C5  899   1.129   2.984   1.382 -0.1332  0.0852  0.1997
  150_EC     C6  900   1.088   2.936   1.520 -0.1583 -0.4060  0.0246
  151_EC     O1  901   1.645   0.271   0.872  0.3192  0.8119  0.3584
  151_EC     C2  902   1.723   0.349   0.825 -0.0016  0.4277 -0.8381
  151_EC     O3  903   1.684   0.474   0.791 -0.5248  0.4131 -0.3113
  151_EC     O4  904   1.803   0.319   0.719  0.3337 -0.3227 -0.3831
  151_EC     C5  905   1.803   0.542   0.751 -0.2541  0.0904 -0.0512
  151_EC     C6  906   1.893   0.429   0.705 -0.2429  0.1763 -0.2404
  152_EC     O1  907   2.649   0.171   0.110 -0.5127 -0.0092 -0.1868
  152_EC     C2  908   2.643   0.191   0.228 -0.3219 -0.4368 -0.1017
  152_EC     O3  909   2.749   0.191   0.313  0.0800  0.0644 -0.5950
  152_EC     O4  910   2.527   0.214   0.295 -0.1299 -0.5276  0.2671
  152_EC     C5  911   2.696   0.206   0.445  0.0860  0.7665 -0.6702
  152_EC     C6  912   2.558   0.267   0.424 -0.5630 -0.3174  0.2884
  153_EC     O1  913   2.948   1.916   2.736  0.1721  0.1052 -0.0235
  153_EC     C2  914   2.875   1.828   2.772  0.9165 -0.6319 -0.2844
  153_EC     O3  915   2.832   1.728   2.692 -0.1367 -0.3203 -0.1187
  153_EC     O4  916   2.887   1.781   2.900  0.0960  0.7268  0.3130
  153_EC     C5  917   2.743   1.649   2.772  0.2215 -0.5055  0.0998
  153_EC     C6  918   2.766   1.706   2.911  0.2036  0.4603 -0.2843
  154_EC     O1  919   1.094   3.929   3.023 -0.0302 -0.2366 -0.2744
  154_EC     C2  920   1.018   0.039   3.050  0.2172 -0.1104  0.0125
  154_EC     O3  921   0.886   0.015   3.077  0.2132  0.2451  0.3213
  154_EC     O4  922   1.041   0.170   3.077 -0.1406  0.0061 -0.2465
  154_EC     C5  923   0.826   0.144   3.084 -0.3217  0.0379 -0.3618
  154_EC     C6  924   0.934   0.220   3.158 -0.1829 -0.5527  0.0479
  155_EC     O1  925   0.416   2.593   1.414  0.4233 -0.3245 -0.0634
  155_EC     C2  926   0.353   2.640   1.324  0.1794 -0.3196  0.1079
  155_EC     O3  927   0.221   2.618   1.299  0.2479 -0.3557 -0.2285
  155_EC     O4  928   0.400   2.627   1.197 -0.0759  0.3603 -0.0593
  155_EC     C5  929   0.191   2.710   1.193  0.0474  0.1208  0.2360
  155_EC     C6  930   0.321   2.715   1.115 -0.0217  0.6005  0.1465
  156_EC     O1  931   2.753   3.961   2.028  0.1124 -0.5106  0.0393
  156_EC     C2  932   2.802   3.856   1.997  0.3578 -0.4010  0.0532
  156_EC     O3  933   2.908   3.810   2.070  0.2257  0.1462  0.5997
  156_EC     O4  934   2.727   3.745   1.975 -0.2970  0.0414  0.0616
  156_EC     C5  935   2.949   3.690   2.003 -0.5966  0.3852 -0.3660
  156_EC     C6  936   2.817   3.638   1.950 -0.5707 -0.2107  0.1457
  157_EC     O1  937   1.717   1.248   1.405 -0.2772 -0.2094  0.5401
  157_EC     C2  938   1.662   1.290   1.502 -0.4749 -0.1388  0.3977
  157_EC     O3  939   1.689   1.235   1.624 -0.2406 -0.5533  0.1629
  157_EC     O4  940   1.593   1.406   1.516 -0.1340  0.1240 -0.0826
  157_EC     C5  941   1.586   1.288   1.708 -0.0199  0.1097  0.0220
  157_EC     C6  942   1.589   1.431   1.657  0.6179  0.0725 -0.0499
  158_EC     O1  943   1.256   1.477   1.352  0.1406 -0.0975 -0.0449
  158_EC     C2  944   1.234   1.567   1.429 -0.2114  0.0091 -0.2687
  158_EC     O3  945   1.128   1.578   1.514  0.3852  0.1194  0.4671
  158_EC     O4  946   1.279   1.693   1.403 -0.0598  0.1392  0.5851
  158_EC     C5  947   1.154   1.693   1.595  0.2971  0.0787  0.5519
  158_EC     C6  948   1.224   1.785   1.497 -0.5404  0.3029  0.1520
  159_EC     O1  949   1.413   3.975   3.594 -0.6216 -0.3700 -0.1334
  159_EC     C2  950   1.448   3.922   3.696  0.0374  0.3882  0.0507
  159_EC     O3  951   1.560   3.849   3.722 -0.3829 -0.4657 -0.5092
  159_EC     O4  952   1.382   3.950   3.812 -0.2012 -0.5538  0.1526
  159_EC     C5  953   1.532   3.771   3.839  0.5226 -0.1438 -0.0677
  159_EC     C6  954   1.461   3.884   3.911  0.5778 -0.0693 -0.1293
  160_EC     O1  955   2.681   1.167   1.650 -0.4349 -0.1128  0.0375
  160_EC     C2  956   2.767   1.084   1.661  0.0186  0.3525  0.0444
  160_EC     O3  957   2.757   0.949   1.649  0.2524  0.3270  0.1308
  160_EC     O4  958   2.855   1.102   1.763 -0.2274  0.0151  0.3196
  160_EC     C5  959   2.893   0.904   1.645  0.2421  0.2904  0.1877
  160_EC     C6  960   2.950   0.996   1.752 -0.0082  0.2017  0.3976
  161_EC     O1  961   2.458   0.093   2.811  0.1151 -0.5092 -0.7578
  161_EC     C2  962   2.425   3.958   2.794 -0.0566 -0.6037  0.1369
  161_EC     O3  963   2.300   3.908   2.780 -0.2633 -0.1898  0.4903
  161_EC     O4  964   2.518   3.865   2.758  0.3959 -0.3196  0.5552
  161_EC     C5  965   2.322   3.773   2.822  0.0083 -0.2167  0.2621
  161_EC     C6  966   2.465   3.735   2.785 -0.1781 -0.2890 -0.3936
  162_EC     O1  967   2.049   3.142   0.004  0.5519 -0.4707  0.0583
  162_EC     C2  968   2.028   3.045   0.071 -0.5288 -0.2050  0.1299
  162_EC     O3  969   2.131   2.965   0.111 -0.0387  0.5334  0.3756
  162_EC     O4  970   1.928   2.957   0.045 -0.3932 -0.3362  0.0483
  162_EC     C5  971   2.072   2.861   0.189 -0.1447  0.2842 -0.0358
  162_EC     C6  972   1.925   2.860   0.150 -0.1423 -0.4580 -0.0558
  163_EC     O1  973   2.827   1.832   2.079  0.3588  0.1343 -0.1006
  163_EC     C2  974   2.769   1.853   1.976 -0.2946 -0.5035  0.1264
  163_EC     O3  975   2.772   1.973   1.912 -0.3130 -0.5135  0.1068
  163_EC     O4  976   2.736   1.756   1.887 -0.5126 -0.2982 -0.0188
  163_EC     C5  977   2.749   1.955   1.772  0.0762 -0.3650  0.0222
  163_EC     C6  978   2.672   1.824   1.778 -0.7045  0.1016  0.3406
  164_EC     O1  979   2.731   3.770   0.560 -0.2964 -0.1333 -0.0123
  164_EC     C2  980   2.714   3.747   0.443  0.1268  0.1994 -0.1428
  164_EC     O3  981   2.768   3.633   0.390  0.7342  0.2839  0.2811
  164_EC     O4  982   2.746   3.839   0.349  0.1789  0.3946  0.0642
  164_EC     C5  983   2.741   3.639   0.250  0.3078 -0.2294  0.3381
  164_EC     C6  984   2.701   3.784   0.225 -0.0334 -0.3043  0.4491
  165_EC     O1  985   2.284   2.601   3.102  0.1911 -0.3451 -0.0977
  165_EC     C2  986   2.307   2.693   3.028  0.2237 -0.7409 -0.5917
  165_EC     O3  987   2.405   2.786   3.046 -0.0719 -0.4394 -0.5203
  165_EC     O4  988   2.327   2.662   2.898  0.8542 -0.1596 -0.6361
  165_EC     C5  989   2.364   2.884   2.950 -0.2577  0.1278  0.1334
  165_EC     C6  990   2.308   2.793   2.842  0.6823 -0.0172 -0.2417
  166_EC     O1  991   3.159   0.248   1.221 -0.0618 -0.3365 -0.3195
  166_EC     C2  992   3.161   0.206   1.109 -0.2584  0.3020 -0.5684
  166_EC     O3  993   3.079   0.109   1.061  0.1598 -0.1967 -0.2901
  166_EC     O4  994   3.184   0.289   1.004  0.2885  0.3458 -0.4170
  166_EC     C5  995   3.115   0.074   0.927 -0.1708 -0.2288 -0.3716
  166_EC     C6  996   3.192   0.200   0.892 -0.4683  0.0025 -0.2011
  167_EC     O1  997   3.034   0.191   3.838 -0.3305 -0.5458  0.1987
  167_EC     C2  998   3.037   0.163   3.955 -0.5670  0.3272  0.4255
  167_EC     O3  999   3.045   0.242   0.088 -0.4027  0.4335  0.3382
  167_EC     O4 1000   3.030   0.033   0.017 -0.4172  0.2241  0.1206
  167_EC     C5 1001   3.024   0.160   0.202 -0.0677  0.1919  0.2286
  167_EC     C6 1002   3.069   0.023   0.155 -0.1873  0.2126  0.0549
  168_EC     O1 1003   0.427   0.138   0.377  0.3834 -0.1156  0.1150
  168_EC     C2 1004   0.432   0.018   0.372  0.3852 -0.0910 -0.5128
  168_EC     O3 1005   0.358   3.925   0.283 -0.4220  0.2557 -0.1349
  168_EC     O4 1006   0.443   3.918   0.482  0.0041 -0.4187 -0.7071
  168_EC     C5 1007   0.387   3.786   0.296  0.1725  0.3481 -0.4538
  168_EC     C6 1008   0.423   3.782   0.443 -0.5772 -0.4567 -0.2861
  169_EC     O1 1009   3.215   1.242   1.576 -0.0614 -0.4633  0.4635
  169_EC     C2 1010   3.225   1.273   1.691  0.5597 -0.2104  0.3435
  169_EC     O3 1011   3.236   1.180   1.789 -0.1259 -0.4889  0.1588
  169_EC     O4 1012   3.144   1.365   1.750  0.3651 -0.0406 -0.1858
  169_EC     C5 1013   3.257   1.248   1.913  0.1518  0.3259 -0.3267
  169_EC     C6 1014   3.201   1.385   1.879  0.0924  0.3529 -0.1238
  170_EC     O1 1015   1.780   3.875   2.517 -0.2056  0.8461  0.2835
  170_EC     C2 1016   1.838   3.904   2.618 -0.4462  0.0376  0.6588
  170_EC     O3 1017   1.904   3.816   2.697  0.5654  0.0362 -0.1704
  170_EC     O4 1018   1.788   0.025   2.696 -0.5144  0.0866  0.5523
  170_EC     C5 1019   1.970   3.896   2.795  0.0383  0.7384 -0.3864
  170_EC     C6 1020   1.892   0.048   2.790 -0.2259  0.6028  0.1139
  171_EC     O1 1021   2.534   2.638   1.063 -0.1013  0.6393  0.0748
  171_EC     C2 1022   2.444   2.575   1.112  0.0474  0.4482  0.1049
  171_EC     O3 1023   2.407   2.447   1.085  0.2022  0.3286  0.4620
  171_EC     O4 1024   2.327   2.628   1.158  0.0039  0.4419  0.0032
  171_EC     C5 1025   2.336   2.401   1.200  0.1226 -0.4730  0.0985
  171_EC     C6 1026   2.259   2.527   1.234  0.3049 -0.1861 -0.5481
  172_EC     O1 1027   2.088   3.965   2.455 -0.5879 -0.6450 -0.4211
  172_EC     C2 1028   2.181   3.889   2.451  0.1248  0.1736  0.2317
  172_EC     O3 1029   2.190   3.770   2.516 -0.2851 -0.0172 -0.0614
  172_EC     O4 1030   2.303   3.923   2.401 -0.0873  0.6383  0.0272
  172_EC     C5 1031   2.296   3.703   2.446 -0.1927  0.3911 -0.3144
  172_EC     C6 1032   2.395   3.817   2.426 -0.2463  0.5016  0.0289
  173_EC     O1 1033   0.393   0.645   2.202  0.0148  0.1743 -0.5145
  173_EC     C2 1034   0.361   0.535   2.237  0.3738  0.1656 -0.2029
  173_EC     O3 1035   0.367   0.424   2.159 -0.5169  0.0316 -0.0919
  173_EC     O4 1036   0.349   0.490   2.365 -0.0895  0.2753 -0.2053
  173_EC     C5 1037   0.294   0.316   2.218  0.2928 -0.1820  0.5265
  173_EC     C6 1038   0.271   0.370   2.357 -0.3496  0.4193  0.1908
  174_EC     O1 1039   3.064   0.743   0.765 -0.0224 -0.1888 -0.1004
  174_EC     C2 1040   3.030   0.647   0.702  0.1070 -0.6082  0.4541
  174_EC     O3 1041   2.907   0.591   0.709 -0.4684  0.5397 -0.1698
  174_EC     O4 1042   3.057   0.623   0.571 -0.4588  0.2737  0.1690
  174_EC     C5 1043   2.908   0.468   0.636  0.5837  0.2808  0.2564
  174_EC     C6 1044   3.037   0.483   0.557  0.2354  0.2157 -0.3333
  175_EC     O1 1045   3.718   2.346   3.336 -0.6843 -0.2136 -0.7232
  175_EC     C2 1046   3.638   2.430   3.366 -0.1269 -0.1430  0.6058
  175_EC     O3 1047   3.685   2.545   3.421 -0.0579  0.2816 -0.3263
  175_EC     O4 1048   3.549   2.472   3.272  0.2622 -0.1522  0.2317
  175_EC     C5 1049   3.572   2.632   3.434  0.0974  0.4424 -0.0568
  175_EC     C6 1050   3.472   2.575   3.335  0.3660  0.1760 -0.1746
  176_EC     O1 1051   3.762   2.513   2.691 -0.1558  0.3767  0.0764
  176_EC     C2 1052   3.755   2.461   2.798 -0.9831  0.1848 -0.0630
  176_EC     O3 1053   3.835   2.500   2.901  0.0192 -0.4071 -0.6085
  176_EC     O4 1054   3.770   2.327   2.818 -0.2915  0.3639  0.6652
  176_EC     C5 1055   3.795   2.429   3.019  0.2205 -0.1256 -0.3685
  176_EC     C6 1056   3.725   2.311   2.953 -0.4572 -0.2403  0.5409
  177_EC     O1 1057   3.404   0.047   1.717  0.2099  0.2847 -0.2029
  177_EC     C2 1058   3.371   0.146   1.658 -0.8198  0.2716  0.3247
  177_EC     O3 1059   3.458   0.240   1.611 -0.2233 -0.2444  0.3732
  177_EC     O4 1060   3.267   0.151   1.572 -0.4495  0.0265 -0.1421
  177_EC     C5 1061   3.384   0.361   1.591  0.2929  0.0500  0.2400
  177_EC     C6 1062   3.264   0.288   1.532  0.1711  0.1785  0.3291
  178_EC     O1 1063   0.859   3.186   2.654  0.0832  0.4699  0.0029
  178_EC     C2 1064   0.951   3.261   2.673  0.3289  0.1923 -0.0829
  178_EC     O3 1065   1.063   3.260   2.597  0.0353  0.0768 -0.5172
  178_EC     O4 1066   1.000   3.294   2.796  0.1840 -0.2816  0.1029
  178_EC     C5 1067   1.123   3.386   2.627 -0.3126  0.1444 -0.1045
  178_EC     C6 1068   1.067   3.416   2.766  0.3144 -0.3156  0.2543
  179_EC     O1 1069   2.649   1.109   0.777  0.1482 -0.0395 -0.3456
  179_EC     C2 1070   2.758   1.106   0.828  0.3011 -0.2030 -0.6768
  179_EC     O3 1071   2.837   0.997   0.846  0.1095 -0.2357 -0.0039
  179_EC     O4 1072   2.848   1.207   0.813  0.1971  0.0318  0.2301
  179_EC     C5 1073   2.955   1.025   0.921  0.0474  0.2233 -0.0748
  179_EC     C6 1074   2.954   1.176   0.905  0.2082  0.2667  0.2986
  180_EC     O1 1075   1.511   2.948   0.548 -0.5339 -0.6872  0.0075
  180_EC     C2 1076   1.421   2.953   0.627 -0.0542  0.7115  0.5036
  180_EC     O3 1077   1.293   2.966   0.584  0.1594  0.0755 -0.3546
  180_EC     O4 1078   1.437   3.027   0.739  0.4465  0.3196  0.6975
  180_EC     C5 1079   1.216   2.963   0.704  0.0303  0.4936 -0.4237
  180_EC     C6 1080   1.310   3.026   0.805 -0.1062  0.5609 -0.3383
  181_EC     O1 1081   2.247   2.036   3.408 -0.2348  0.2080 -0.1003
  181_EC     C2 1082   2.241   2.142   3.352  0.2747  0.2805 -0.0228
  181_EC     O3 1083   2.151   2.156   3.251 -0.1678  0.3293  0.3757
  181_EC     O4 1084   2.232   2.255   3.427  0.0074  0.1369  0.1621
  181_EC     C5 1085   2.182   2.285   3.199  0.5697  0.0173  0.0306
  181_EC     C6 1086   2.228   2.355   3.325 -0.1206  0.1734  0.2022
  182_EC     O1 1087   1.099   2.983   1.055  0.1476  0.3585 -0.3367
  182_EC     C2 1088   1.030   3.082   1.052  0.2182  0.4255  0.2505
  182_EC     O3 1089   1.074   3.204   1.014  0.2131  0.3646  0.0490
  182_EC     O4 1090   0.898   3.079   1.017  0.3956 -0.0503 -0.3997
  182_EC     C5 1091   0.973   3.293   1.062 -0.0418 -0.1042  0.3905
  182_EC     C6 1092   0.849   3.205   1.063  0.0495 -0.2443 -0.2304
  183_EC     O1 1093   3.257   1.283   2.696 -0.2530 -0.1203  0.4010
  183_EC     C2 1094   3.248   1.389   2.751  0.0299  0.2546 -0.2641
  183_EC     O3 1095   3.152   1.482   2.724 -0.0390  0.2156 -0.1545
  183_EC     O4 1096   3.282   1.412   2.881 -0.8069 -0.0435  0.0156
  183_EC     C5 1097   3.206   1.604   2.775  0.0554  0.1519 -0.1023
  183_EC     C6 1098   3.291   1.554   2.891 -0.1188 -0.0781 -0.0725
  184_EC     O1 1099   3.727   3.481   3.522 -0.2988 -0.5241  0.4569
  184_EC     C2 1100   3.666   3.396   3.463 -0.0580 -0.2619 -0.1748
  184_EC     O3 1101   3.733   3.292   3.407 -0.1348 -0.3106 -0.1771
  184_EC     O4 1102   3.569   3.430   3.374 -0.1169 -0.3300 -0.1373
  184_EC     C5 1103   3.636   3.205   3.347 -0.1077 -0.0934 -0.5390
  184_EC     C6 1104   3.522   3.304   3.325 -0.3348 -0.2589 -0.1157
  185_EC     O1 1105   3.324   3.844   1.212 -0.0185  0.2539  0.0260
  185_EC     C2 1106   3.420   3.915   1.224  0.1811  0.0056 -0.0915
  185_EC     O3 1107   3.418   0.072   1.225 -0.0390  0.0051 -0.2732
  185_EC     O4 1108   3.551   3.878   1.217  0.1631 -0.1694  0.4476
  185_EC     C5 1109   3.542   0.116   1.282  0.0066  0.1758 -0.5045
  185_EC     C6 1110   3.633   0.016   1.212 -0.1027 -0.0087 -0.3829
  186_EC     O1 1111   2.392   0.361   3.940  0.0069 -0.1050  0.5014
  186_EC     C2 1112   2.398   0.243   3.917  0.2075 -0.0159  0.0936
  186_EC     O3 1113   2.446   0.199   3.797  0.0642  0.1014 -0.0069
  186_EC     O4 1114   2.302   0.149   3.941  0.2486 -0.2470 -0.6240
  186_EC     C5 1115   2.443   0.056   3.800 -0.1290  0.1015 -0.1231
  186_EC     C6 1116   2.363   0.021   3.925  0.6857 -0.1700  0.3314
  187_EC     O1 1117   2.413   1.096   1.957  0.2249 -0.0969  0.1475
  187_EC     C2 1118   2.397   1.057   1.845  0.7972  0.2446 -0.0567
  187_EC     O3 1119   2.442   1.131   1.740  0.0916  0.4949 -0.1831
  187_EC     O4 1120   2.410   0.928   1.803  0.4599  0.2874 -0.2993
  187_EC     C5 1121   2.376   1.074   1.627 -0.2055  0.2025  0.1361
  187_EC     C6 1122   2.356   0.930   1.671 -0.2708  0.1672 -0.0073
  188_EC     O1 1123   3.273   0.897   2.050 -0.2167  0.5493 -0.3343
  188_EC     C2 1124   3.245   0.847   2.155 -0.3252  0.1874 -0.5337
  188_EC     O3 1125   3.237   0.933   2.260 -0.0121 -0.3407 -0.0648
  188_EC     O4 1126   3.145   0.758   2.180 -0.1483  0.2435  0.4341
  188_EC     C5 1127   3.209   0.858   2.378 -0.4037  0.0865  0.1153
  188_EC     C6 1128   3.139   0.736   2.321  0.0946 -0.3125  0.3581
  189_EC     O1 1129   3.319   1.954   1.619 -0.2071 -0.5265  0.3170
  189_EC     C2 1130   3.270   1.962   1.728 -0.4190  0.0501  0.1846
  189_EC     O3 1131   3.171   1.876   1.766 -0.0277 -0.4736  0.0275
  189_EC     O4 1132   3.342   1.980   1.842  0.0716 -0.1899 -0.0801
  189_EC     C5 1133   3.119   1.942   1.881 -0.2092 -0.1598 -0.2312
  189_EC     C6 1134   3.239   2.017   1.935 -0.1984 -0.0291 -0.4377
  190_EC     O1 1135   1.284   1.080   3.646  0.2336  0.0517 -0.7299
  190_EC     C2 1136   1.182   1.136   3.676  0.2617 -0.2707 -0.0076
  190_EC     O3 1137   1.088   1.078   3.756  0.3423  0.2720  0.4898
  190_EC     O4 1138   1.190   1.263   3.724 -0.1134  0.0091 -0.6732
  190_EC     C5 1139   0.987   1.180   3.750  0.2168  0.1272  0.0333
  190_EC     C6 1140   1.056   1.313   3.724 -0.1058  0.0431 -1.3156
  191_EC     O1 1141   2.741   3.133   3.710  0.3183 -0.3180 -0.3356
  191_EC     C2 1142   2.650   3.091   3.776  0.2539  0.0705 -0.1711
  191_EC     O3 1143   2.539   3.167   3.792 -0.0216 -0.2602 -0.4793
  191_EC     O4 1144   2.603   2.964   3.791  0.6507 -0.0324  0.2107
  191_EC     C5 1145   2.457   3.111   3.894  0.4717 -0.0261  0.0486
  191_EC     C6 1146   2.499   2.965   3.889  0.6400  0.0167  0.1987
  192_EC     O1 1147   2.606   2.569   2.031 -0.0132 -0.6538 -0.7029
  192_EC     C2 1148   2.487   2.588   2.033  0.0710 -0.1431  0.2557
  192_EC     O3 1149   2.436   2.681   2.118  0.3552  0.0612  0.2072
  192_EC     O4 1150   2.405   2.481   2.023 -0.0004  0.0065 -0.8650
  192_EC     C5 1151   2.298   2.648   2.139  0.4667 -0.2375  0.4867
  192_EC     C6 1152   2.283   2.556   2.019  0.0880  0.2169  0.1830
  193_EC     O1 1153   0.873   1.607   1.231  0.4655  0.4237 -0.2056
  193_EC     C2 1154   0.904   1.722   1.243  0.6747  0.3287  0.2139
  193_EC     O3 1155   0.990   1.777   1.153  0.5593  0.2557  0.0584
  193_EC     O4 1156   0.934   1.779   1.363  0.6486 -0.1145  0.4309
  193_EC     C5 1157   0.997   1.917   1.183 -0.2465  0.2297  0.4082
  193_EC     C6 1158   0.943   1.916   1.325  0.5517 -0.0282  0.7187
  194_EC     O1 1159   3.978   1.521   3.614 -0.1311  0.3234 -0.0717
  194_EC     C2 1160   3.913   1.621   3.634 -0.1388  0.2776  0.1412
  194_EC     O3 1161   3.966   1.722   3.707 -0.0224  0.1702  0.2046
  194_EC     O4 1162   3.779   1.622   3.656 -0.2283 -0.0777 -0.3678
  194_EC     C5 1163   3.871   1.827   3.689  0.0468  0.1515 -0.2586
  194_EC     C6 1164   3.743   1.759   3.643  0.1652  0.0241 -0.4067
  195_EC     O1 1165   2.819   1.248   3.725 -0.0628 -0.4439  0.0910
  195_EC     C2 1166   2.719   1.240   3.658 -0.0632  0.1312  0.0214
  195_EC     O3 1167   2.696   1.132   3.579 -0.5604  0.1348  0.1561
  195_EC     O4 1168   2.675   1.351   3.593  0.3757  0.1329 -0.2757
  195_EC     C5 1169   2.583   1.165   3.497  0.2240  0.8172 -0.6804
  195_EC     C6 1170   2.555   1.311   3.526  0.0726  0.6708 -0.0593
  196_EC     O1 1171   1.348   0.143   0.538  0.6862  0.0807 -0.7171
  196_EC     C2 1172   1.349   0.247   0.598 -0.9569 -0.2614 -0.0195
  196_EC     O3 1173   1.365   0.251   0.733 -0.5576  0.2137 -0.0785
  196_EC     O4 1174   1.422   0.354   0.555 -0.8728 -0.2468  0.1594
  196_EC     C5 1175   1.339   0.387   0.767 -0.0148  0.2271  0.3056
  196_EC     C6 1176   1.382   0.461   0.641 -0.7529 -0.0018 -0.0886
  197_EC     O1 1177   0.716   3.139   3.757 -0.9445 -0.0486 -0.3408
  197_EC     C2 1178   0.716   3.244   3.699  0.4520  0.2284  0.1136
  197_EC     O3 1179   0.739   3.252   3.565  0.5501  0.2143  0.1294
  197_EC     O4 1180   0.747   3.367   3.748  0.5191  0.2217  0.0862
  197_EC     C5 1181   0.703   3.386   3.527 -0.7474 -0.1263  0.1103
  197_EC     C6 1182   0.704   3.467   3.655  0.3261  0.0532 -0.0078
  198_EC     O1 1183   3.024   3.294   0.392  0.0025 -0.2416 -0.2486
  198_EC     C2 1184   2.941   3.331   0.470  0.1352  0.4521 -0.4343
  198_EC     O3 1185   2.808   3.310   0.449  0.0658  0.6066 -0.1424
  198_EC     O4 1186   2.952   3.426   0.566  0.1485 -0.5929  0.6127
  198_EC     C5 1187   2.733   3.355   0.562 -0.0535 -0.4492  0.2078
  198_EC     C6 1188   2.845   3.395   0.656 -0.2167 -0.2280  0.3091
  199_EC     O1 1189   0.022   0.616   3.359  0.4466  0.0099 -0.1850
  199_EC     C2 1190   3.930   0.528   3.398 -0.0500  0.3485 -0.3339
  199_EC     O3 1191   3.874   0.442   3.308  0.2875 -0.1874 -0.0315
  199_EC     O4 1192   3.851   0.528   3.509  0.3514 -0.4069 -0.0446
  199_EC     C5 1193   3.771   0.366   3.372  0.2352  0.3439  0.5241
  199_EC     C6 1194   3.800   0.395   3.519  0.1739 -0.2888  0.6624
  200_EC     O1 1195   1.131   3.781   1.733 -0.4534 -0.3812  0.5860
  200_EC     C2 1196   1.107   3.678   1.676  0.6011 -0.2143 -0.2056
  200_EC     O3 1197   1.041   3.677   1.557  1.0374  0.0782 -0.4534
  200_EC     O4 1198   1.191   3.571   1.678  0.2885 -0.4512  0.4135
  200_EC     C5 1199   1.010   3.541   1.525 -0.4274  0.2589  0.0858
  200_EC     C6 1200   1.117   3.471   1.607 -0.2194  0.3065 -0.1426
  201_EC     O1 1201   1.523   3.506   2.191  0.3619  0.0046 -0.0111
  201_EC     C2 1202   1.604   3.593   2.181  0.5732 -0.2276 -0.3308
  201_EC     O3 1203   1.715   3.599   2.259  0.4188  0.2144 -0.1414
  201_EC     O4 1204   1.577   3.724   2.154  0.3631 -0.2003  0.0150
  201_EC     C5 1205   1.807   3.695   2.206  0.1948  0.1122 -0.7202
  201_EC     C6 1206   1.706   3.782   2.133 -0.0292  0.8618  0.4577
  202_EC     O1 1207   1.324   2.757   3.028 -0.4274  0.6910 -0.0130
  202_EC     C2 1208   1.288   2.757   3.142 -0.3625  0.1064  0.0122
  202_EC     O3 1209   1.221   2.651   3.194 -0.1509 -0.1066 -0.1491
  202_EC     O4 1210   1.232   2.866   3.201  0.3224  0.4912 -0.0383
  202_EC     C5 1211   1.218   2.679   3.334  0.0895 -0.0481 -0.1551
  202_EC     C6 1212   1.225   2.831   3.340 -1.0207  0.0175 -0.2101
  203_EC     O1 1213   0.390   2.290   0.898 -0.2380  0.1360 -0.1075
  203_EC     C2 1214   0.325   2.279   0.998  0.1875 -0.3308  0.1244
  203_EC     O3 1215   0.353   2.341   1.116 -0.5508  0.2197  0.0199
  203_EC     O4 1216   0.217   2.198   1.011 -0.3183  0.3136 -0.0023
  203_EC     C5 1217   0.257   2.296   1.212 -0.3526  0.3461  0.2811
  203_EC     C6 1218   0.144   2.243   1.125 -0.2163  0.5878 -0.0448
  204_EC     O1 1219   1.963   3.442   2.829  0.0619  0.0286 -0.0775
  204_EC     C2 1220   1.878   3.472   2.908  0.0830 -0.4195  0.1172
  204_EC     O3 1221   1.888   3.548   3.021 -0.3583 -0.0645 -0.0759
  204_EC     O4 1222   1.785   3.383   2.952 -0.4132  0.0444  0.0233
  204_EC     C5 1223   1.757   3.566   3.073 -0.2642 -0.2261  0.2179
  204_EC     C6 1224   1.677   3.448   3.020 -0.3808 -0.1816  0.2917
  205_EC     O1 1225   1.027   0.368   2.896 -0.5984 -0.9458  0.2655
  205_EC     C2 1226   1.068   0.311   2.799 -0.0694  0.0583 -0.1084
  205_EC     O3 1227   1.026   0.349   2.675  0.0327 -0.0913 -0.1893
  205_EC     O4 1228   1.098   0.178   2.798  0.4102  0.1655 -0.3599
  205_EC     C5 1229   1.067   0.242   2.589 -0.3909 -0.1279 -0.3487
  205_EC     C6 1230   1.163   0.158   2.672  0.1408  0.3029 -0.5224
  206_EC     O1 1231   0.617   3.115   0.785 -0.0137 -0.0126  0.0101
  206_EC     C2 1232   0.682   3.039   0.717 -0.0420  0.0807 -0.1224
  206_EC     O3 1233   0.695   2.905   0.733 -0.0748  0.0973  0.0508
  206_EC     O4 1234   0.784   3.080   0.638 -0.2835 -0.3528 -0.6648
  206_EC     C5 1235   0.783   2.853   0.632 -0.3775 -0.2961 -0.0147
  206_EC     C6 1236   0.864   2.973   0.586 -0.0945 -0.5054 -0.0622
  207_EC     O1 1237   3.458   3.134   3.011 -0.2025 -0.2553  0.1473
  207_EC     C2 1238   3.359   3.065   3.010 -0.3817  0.0029 -0.2182
  207_EC     O3 1239   3.258   3.078   2.920 -0.3176  0.1510 -0.2689
  207_EC     O4 1240   3.372   2.932   3.032  0.1106  0.0303 -0.3137
  207_EC     C5 1241   3.153   2.987   2.955 -0.3178  0.1227 -0.3428
  207_EC     C6 1242   3.238   2.881   3.024  0.0537  0.2317 -0.6246
  208_EC     O1 1243   0.508   3.822   0.827 -0.1013 -0.4913 -0.0485
  208_EC     C2 1244   0.460   3.931   0.815  0.2252 -0.3263  0.1418
  208_EC     O3 1245   0.515   0.051   0.739  0.1125 -0.4268 -0.0707
  208_EC     O4 1246   0.407   0.017   0.923 -0.2576  0.0582 -0.3219
  208_EC     C5 1247   0.418   0.155   0.741 -0.1260 -0.6425 -0.3379
  208_EC     C6 1248   0.339   0.132   0.870  0.3507  0.6743  0.2119
  209_EC     O1 1249   3.546   3.600   2.531 -0.0476 -0.6960 -0.1933
  209_EC     C2 1250   3.438   3.596   2.478 -0.3067  0.0481  0.2659
  209_EC     O3 1251   3.403   3.691   2.387  0.2588  0.1764  0.1762
  209_EC     O4 1252   3.362   3.485   2.461 -0.1569 -0.1179  0.6532
  209_EC     C5 1253   3.264   3.673   2.357  0.3463 -0.2565  0.0110
  209_EC     C6 1254   3.236   3.535   2.413 -0.0459  0.0119  0.4949
  210_EC     O1 1255   2.435   3.733   3.673  0.2205  0.5052  0.2737
  210_EC     C2 1256   2.454   3.728   3.554 -0.0524  0.1231  0.2423
  210_EC     O3 1257   2.513   3.619   3.498  0.3357  0.3007  0.2989
  210_EC     O4 1258   2.371   3.777   3.458  0.1322  0.1774  0.1088
  210_EC     C5 1259   2.544   3.649   3.362  0.0033 -0.5471  0.0281
  210_EC     C6 1260   2.442   3.759   3.336 -0.1059 -0.6362  0.0814
  211_EC     O1 1261   2.359   0.892   0.776  0.8295  0.5184  0.1728
  211_EC     C2 1262   2.452   0.857   0.709  0.5009 -0.0488  0.0081
  211_EC     O3 1263   2.442   0.836   0.575  0.1749 -0.1173  0.0423
  211_EC     O4 1264   2.539   0.762   0.753  0.2386 -0.0663  0.4875
  211_EC     C5 1265   2.578   0.813   0.537  0.1054 -0.2054 -0.1562
  211_EC     C6 1266   2.650   0.769   0.663 -0.1752 -0.3488 -0.0457
  212_EC     O1 1267   3.966   3.729   3.491 -0.0528 -0.1357 -0.1939
  212_EC     C2 1268   0.035   3.633   3.544  0.0392  0.1015  0.1554
  212_EC     O3 1269   0.046   3.623   3.679 -0.6770  0.3705  0.2389
  212_EC     O4 1270   0.137   3.559   3.491 -0.2078  0.0007 -0.1828
  212_EC     C5 1271   0.101   3.496   3.714  0.4071  0.7570  0.0045
  212_EC     C6 1272   0.136   3.444   3.576  0.0050  0.2090  0.1027
  213_EC     O1 1273   2.304   2.138   1.898 -0.1136  0.2771  0.1532
  213_EC     C2 1274   2.404   2.131   1.965  0.0090  0.5165 -0.0077
  213_EC     O3 1275   2.407   2.061   2.081 -0.3790  0.0944 -0.2464
  213_EC     O4 1276   2.527   2.165   1.919 -0.2186  0.4185 -0.7120
  213_EC     C5 1277   2.526   2.106   2.147 -0.1455 -0.4072 -0.3263
  213_EC     C6 1278   2.607   2.174   2.038 -0.4516 -0.3198 -0.4992
  214_EC     O1 1279   3.599   0.456   3.081  0.6821  0.3685 -0.1366
  214_EC     C2 1280   3.553   0.460   2.971  0.1102 -0.1215  0.0792
  214_EC     O3 1281   3.622   0.498   2.860  0.6776 -0.3500  0.3501
  214_EC     O4 1282   3.421   0.485   2.948  0.2710  0.6337 -0.0665
  214_EC     C5 1283   3.534   0.457   2.754  0.4530 -0.3626  0.5406
  214_EC     C6 1284   3.393   0.452   2.811  0.1813  0.5707 -0.0333
  215_EC     O1 1285   3.756   0.333   0.313 -0.3325 -0.3645 -0.1385
  215_EC     C2 1286   3.795   0.439   0.272 -0.3755 -0.2387  0.1368
  215_EC     O3 1287   3.751   0.493   0.155  0.2667 -0.0015  0.0009
  215_EC     O4 1288   3.805   0.549   0.350 -0.2013  0.1842 -0.4695
  215_EC     C5 1289   3.825   0.613   0.131 -0.2861  0.3867  0.2292
  215_EC     C6 1290   3.870   0.649   0.271 -0.3352  0.7651  0.1482
  216_EC     O1 1291   3.382   2.932   3.333  0.3225 -0.1041 -0.4629
  216_EC     C2 1292   3.342   3.004   3.420 -0.0370 -0.2517 -0.5050
  216_EC     O3 1293   3.247   2.945   3.498  0.6807 -0.3802  0.2934
  216_EC     O4 1294   3.414   3.080   3.507 -0.2662 -0.4713 -0.1193
  216_EC     C5 1295   3.206   3.036   3.600  0.3948 -0.0699 -0.0931
  216_EC     C6 1296   3.317   3.140   3.593  0.0253  0.3111 -0.3259
  217_EC     O1 1297   0.615   3.715   2.247  0.0540 -0.0833 -0.0311
  217_EC     C2 1298   0.601   3.824   2.295  0.3682  0.2506 -0.6804
  217_EC     O3 1299   0.691   3.906   2.355  0.0249  0.4483 -0.4262
  217_EC     O4 1300   0.479   3.875   2.326  0.2874 -0.1658 -0.3000
  217_EC     C5 1301   0.634   0.055   2.384 -0.0002  0.1266  1.0080
  217_EC     C6 1302   0.490   0.014   2.407 -0.1623 -0.1020 -0.3287
  218_EC     O1 1303   0.566   2.564   3.911  0.1436  0.2053 -0.4834
  218_EC     C2 1304   0.607   2.451   3.908  0.3974  0.2555  0.6219
  218_EC     O3 1305   0.526   2.349   3.946  0.0699  0.3635  0.2225
  218_EC     O4 1306   0.667   2.400   3.797  0.0394  0.1014  0.4972
  218_EC     C5 1307   0.599   2.228   3.925 -0.0458  0.2533  0.4571
  218_EC     C6 1308   0.713   2.269   3.834  0.0046  0.0721  0.4370
  219_EC     O1 1309   1.020   2.257   2.477  0.2638 -0.1685 -0.0814
  219_EC     C2 1310   0.909   2.218   2.454 -0.0211  0.1683  0.6998
  219_EC     O3 1311   0.854   2.111   2.517  0.1321  0.1245  0.7598
  219_EC     O4 1312   0.804   2.305   2.450  0.0302  0.1932 -0.6183
  219_EC     C5 1313   0.741   2.093   2.431 -0.0858  0.0667  1.0557
  219_EC     C6 1314   0.691   2.233   2.400  0.0053 -0.1416 -0.0883
  220_EC     O1 1315   1.310   2.658   0.669 -0.1513  0.0706 -0.1169
  220_EC     C2 1316   1.235   2.572   0.631 -0.5846  0.6725 -0.6651
  220_EC     O3 1317   1.267   2.459   0.562  0.2397  0.3751  0.1855
  220_EC     O4 1318   1.149   2.514   0.719  0.3326 -0.0568 -0.2242
  220_EC     C5 1319   1.140   2.407   0.523  0.6511 -0.6752  0.2079
  220_EC     C6 1320   1.049   2.452   0.637  0.4146 -0.3391 -0.1110
  221_EC     O1 1321   2.448   1.592   2.568 -0.3667  0.3302 -0.0771
  221_EC     C2 1322   2.507   1.637   2.474 -0.2841  0.1064 -0.1320
  221_EC     O3 1323   2.494   1.765   2.429  0.3231  0.1520 -0.1838
  221_EC     O4 1324   2.525   1.565   2.360  0.3489 -0.8268  0.5449
  221_EC     C5 1325   2.598   1.780   2.332  0.0223 -0.3571 -0.5931
  221_EC     C6 1326   2.624   1.637   2.286  0.7856 -0.8000  1.1515
  222_EC     O1 1327   0.947   0.992   2.159  0.5789 -0.2573  0.1827
  222_EC     C2 1328   0.965   1.108   2.185 -0.2976  0.0340 -0.4256
  222_EC     O3 1329   0.881   1.210   2.157 -0.0365  0.3028 -0.2368
  222_EC     O4 1330   1.043   1.129   2.295  0.0049  0.0087 -0.6316
  222_EC     C5 1331   0.951   1.327   2.201 -0.4349  0.4422  0.0415
  222_EC     C6 1332   1.054   1.271   2.298  0.3033 -0.0059 -0.9748
  223_EC     O1 1333   1.581   2.803   3.269  0.2170 -0.0907  0.2186
  223_EC     C2 1334   1.632   2.741   3.359  0.6263  0.3105  0.2673
  223_EC     O3 1335   1.657   2.803   3.477  0.1961  0.0254  0.5108
  223_EC     O4 1336   1.707   2.628   3.350 -0.0564 -0.1036 -0.3545
  223_EC     C5 1337   1.669   2.695   3.570  0.3761 -0.1650  0.2678
  223_EC     C6 1338   1.703   2.575   3.483  0.3035  0.1762 -0.2286
  224_EC     O1 1339   3.224   0.609   1.385  0.0157  0.3284  0.1263
  224_EC     C2 1340   3.250   0.579   1.272  0.6144  0.2375  0.2873
  224_EC     O3 1341   3.359   0.502   1.246  0.0896 -0.3945 -0.0850
  224_EC     O4 1342   3.249   0.670   1.171  0.4750 -0.1234 -0.0403
  224_EC     C5 1343   3.380   0.493   1.105 -0.3854 -0.3176 -0.1607
  224_EC     C6 1344   3.291   0.604   1.051  0.0806  0.0152 -0.2561
  225_EC     O1 1345   3.728   0.300   1.483  0.0589 -0.3641 -0.3761
  225_EC     C2 1346   3.729   0.221   1.573 -0.4233  0.2334  0.1626
  225_EC     O3 1347   3.821   0.240   1.672 -0.3914 -0.1658  0.2121
  225_EC     O4 1348   3.745   0.092   1.534  0.1978  0.2013  0.5121
  225_EC     C5 1349   3.839   0.116   1.740 -0.0611 -0.2750 -0.0770
  225_EC     C6 1350   3.772   0.013   1.650 -0.7862 -0.2583  0.4377
  226_EC     O1 1351   0.535   0.205   2.692 -0.1197  0.1848 -0.4218
  226_EC     C2 1352   0.555   0.322   2.676 -0.4090  0.2777 -0.1226
  226_EC     O3 1353   0.577   0.403   2.784 -0.5464  0.3834 -0.1744
  226_EC     O4 1354   0.496   0.404   2.585 -0.3460  0.0506 -0.3686
  226_EC     C5 1355   0.628   0.525   2.729 -0.0518  0.1797 -0.1721
  226_EC     C6 1356   0.553   0.535   2.597 -0.6186  0.1274  0.1403
  227_EC     O1 1357   3.706   0.760   1.079 -0.5307  0.0084  0.1011
  227_EC     C2 1358   3.737   0.647   1.102 -0.1436  0.0492 -0.1933
  227_EC     O3 1359   3.682   0.541   1.037 -0.2540 -0.1850  0.2740
  227_EC     O4 1360   3.864   0.613   1.138 -0.1411 -0.0536 -0.2999
  227_EC     C5 1361   3.734   0.422   1.097 -0.0567 -0.0101  0.4527
  227_EC     C6 1362   3.852   0.475   1.176  0.4273 -0.0811 -0.2189
  228_EC     O1 1363   1.866   3.209   3.363 -0.1754  0.2334  0.5358
  228_EC     C2 1364   1.772   3.171   3.299  0.0406 -0.2094  0.4808
  228_EC     O3 1365   1.645   3.193   3.340 -0.0995 -0.1420  0.0173
  228_EC     O4 1366   1.767   3.166   3.163  0.3410 -1.1015  0.4943
  228_EC     C5 1367   1.564   3.108   3.257 -0.3219  0.4734 -0.4055
  228_EC     C6 1368   1.647   3.095   3.130 -0.0195 -0.2108 -0.1443
  229_EC     O1 1369   3.756   0.242   2.669  0.4259  0.0491 -0.0454
  229_EC     C2 1370   3.872   0.217   2.690  0.2684 -0.4575  0.2304
  229_EC     O3 1371   3.922   0.171   2.808  0.4623 -0.2097  0.2441
  229_EC     O4 1372   3.961   0.211   2.588 -0.0619 -0.4630 -0.0606
  229_EC     C5 1373   0.080   0.144   2.778  0.5877  0.4001  0.2661
  229_EC     C6 1374   0.111   0.218   2.648 -0.0264 -0.1117 -0.1758
  230_EC     O1 1375   3.269   0.308   1.958  0.0985 -0.2701  0.0296
  230_EC     C2 1376   3.208   0.405   1.921 -0.1786 -0.3790  0.2034
  230_EC     O3 1377   3.152   0.423   1.799 -0.1621 -0.3009  0.2071
  230_EC     O4 1378   3.236   0.528   1.971 -0.6546 -0.1145 -0.1702
  230_EC     C5 1379   3.088   0.551   1.790 -0.1754 -0.3330 -0.1536
  230_EC     C6 1380   3.137   0.615   1.918 -0.5796 -0.0212 -0.1577
  231_EC     O1 1381   3.015   3.032   0.706  0.0630 -0.3446  0.1646
  231_EC     C2 1382   3.100   3.104   0.751  0.1799 -0.0125 -0.5684
  231_EC     O3 1383   3.220   3.053   0.791 -0.0045 -0.2034 -0.2536
  231_EC     O4 1384   3.131   3.218   0.684  0.4189 -0.0699 -0.5556
  231_EC     C5 1385   3.268   3.166   0.863  0.3358 -0.2819 -0.3551
  231_EC     C6 1386   3.229   3.279   0.769 -0.2386 -0.0279  0.1769
  232_EC     O1 1387   0.955   1.500   2.963  0.1148  0.2769  0.0424
  232_EC     C2 1388   0.948   1.386   2.927 -0.6004  0.2257  0.3319
  232_EC     O3 1389   0.972   1.284   3.015  0.5572 -0.0942 -0.3331
  232_EC     O4 1390   1.002   1.333   2.814 -0.0121 -0.0697  0.7473
  232_EC     C5 1391   0.925   1.165   2.952  0.5083 -0.2460 -0.0131
  232_EC     C6 1392   0.956   1.197   2.806 -0.7187  0.2172 -0.1822
  233_EC     O1 1393   0.689   3.533   1.045  0.0283 -0.5043  0.5861
  233_EC     C2 1394   0.574   3.560   1.063  0.0368  0.3008 -0.4794
  233_EC     O3 1395   0.485   3.463   1.096  0.3409  0.1760 -0.0277
  233_EC     O4 1396   0.524   3.667   1.131  0.3024 -0.0096  0.2062
  233_EC     C5 1397   0.353   3.516   1.087  0.1484 -0.2882  0.0128
  233_EC     C6 1398   0.382   3.662   1.118  0.2660 -0.4488  0.6884
  234_EC     O1 1399   1.037   2.760   0.418  0.2806 -0.0027 -0.7696
  234_EC     C2 1400   1.119   2.835   0.375  0.2985  0.4520  0.0399
  234_EC     O3 1401   1.104   2.969   0.391 -0.2186  0.3550  0.3773
  234_EC     O4 1402   1.178   2.813   0.254 -0.7266 -0.1609 -0.3603
  234_EC     C5 1403   1.209   3.030   0.315 -0.1540 -0.4927 -0.2234
  234_EC     C6 1404   1.274   2.917   0.236 -0.2787 -0.5453 -0.2511
  235_EC     O1 1405   2.237   3.179   1.908  0.1730 -0.1505 -0.0210
  235_EC     C2 1406   2.190   3.237   1.815  0.1519 -0.5970 -0.2903
  235_EC     O3 1407   2.161   3.370   1.805  0.1565 -0.5745 -0.0111
  235_EC     O4 1408   2.097   3.174   1.738 -0.3118 -0.0800 -0.1529
  235_EC     C5 1409   2.139   3.385   1.664  0.4034 -0.3256 -0.0231
  235_EC     C6 1410   2.083   3.251   1.618  0.0619 -0.1163 -0.2197
  236_EC     O1 1411   3.551   3.266   1.593  0.0270  0.3678  0.0145
  236_EC     C2 1412   3.514   3.189   1.677  0.4547  0.0961 -0.0430
  236_EC     O3 1413   3.595   3.135   1.772  0.3633  0.2612  0.1277
  236_EC     O4 1414   3.398   3.212   1.745  0.1638 -0.8942 -0.1944
  236_EC     C5 1415   3.514   3.039   1.841  0.2764  0.1243 -0.1625
  236_EC     C6 1416   3.380   3.110   1.844 -0.0004 -0.4091  0.2744
  237_EC     O1 1417   0.191   0.664   0.076  0.0609  0.0471 -0.1361
  237_EC     C2 1418   0.208   0.781   0.057  0.3292  0.0202 -0.0591
  237_EC     O3 1419   0.182   0.879   0.147  0.1361  0.1377 -0.2401
  237_EC     O4 1420   0.285   0.830   3.933 -0.0845 -0.0035 -0.3852
  237_EC     C5 1421   0.270   0.987   0.114 -0.2322  0.5395  0.0831
  237_EC     C6 1422   0.273   0.973   3.940 -0.3726 -0.0500  0.1333
  238_EC     O1 1423   3.376   3.541   3.670  0.1193  0.2541  0.1351
  238_EC     C2 1424   3.322   3.628   3.733 -0.0127  0.4166 -0.1968
  238_EC     O3 1425   3.387   3.682   3.839  0.1676 -0.4854  0.1623
  238_EC     O4 1426   3.193   3.622   3.777  0.1736  0.0236  0.3043
  238_EC     C5 1427   3.305   3.783   3.899  0.3575  0.0140 -0.4145
  238_EC     C6 1428   3.169   3.748   3.840  0.0561  0.0199  0.2666
  239_EC     O1 1429   3.663   3.209   0.177  0.3007 -0.0024 -0.3092
  239_EC     C2 1430   3.664   3.089   0.176 -0.0161 -0.0120  0.3802
  239_EC     O3 1431   3.680   3.014   0.064 -0.3842  0.0957  0.2533
  239_EC     O4 1432   3.572   3.012   0.241 -0.0434  0.1220  0.5031
  239_EC     C5 1433   3.719   2.887   0.119  0.6405  0.2988  0.0170
  239_EC     C6 1434   3.628   2.880   0.241  0.1961  0.2183 -0.3166
  240_EC     O1 1435   2.693   2.097   2.451 -0.0809  0.4626  0.4779
  240_EC     C2 1436   2.600   2.067   2.521 -0.1472  0.7144  0.4985
  240_EC     O3 1437   2.479   2.039   2.466  0.3787 -0.3613 -0.1526
  240_EC     O4 1438   2.625   1.966   2.609 -0.0824  0.3153  0.0297
  240_EC     C5 1439   2.400   2.029   2.584  0.5797  0.2902  0.0448
  240_EC     C6 1440   2.497   1.951   2.671  0.0820 -0.0815  0.2757
  241_EC     O1 1441   2.000   3.923   3.099  0.3997 -0.1726 -0.1605
  241_EC     C2 1442   2.044   3.972   3.199 -0.0173 -0.0712 -0.0256
  241_EC     O3 1443   2.171   3.939   3.235 -0.0615 -0.3189 -0.0910
  241_EC     O4 1444   2.038   0.124   3.233 -0.1096 -0.0593 -0.0884
  241_EC     C5 1445   2.178   0.007   3.370 -0.4256 -0.5409  0.0046
  241_EC     C6 1446   2.088   0.130   3.367  0.1682 -0.1121 -0.1915
  242_EC     O1 1447   2.518   1.369   0.374  0.2243  0.5890 -0.1241
  242_EC     C2 1448   2.490   1.285   0.294  0.7870 -0.0207  0.2965
  242_EC     O3 1449   2.374   1.214   0.288  0.8343 -0.0935  0.2365
  242_EC     O4 1450   2.548   1.273   0.171  0.2494  0.1994  0.0136
  242_EC     C5 1451   2.395   1.106   0.197  0.3268 -0.0309  0.0426
  242_EC     C6 1452   2.469   1.186   0.091  0.1306  0.2277  0.0997
  243_EC     O1 1453   2.106   0.381   1.822  0.0188 -0.3324  0.0285
  243_EC     C2 1454   2.214   0.429   1.843 -0.4127  0.4267  0.5532
  243_EC     O3 1455   2.323   0.372   1.901 -0.1563  0.2979 -0.0469
  243_EC     O4 1456   2.269   0.484   1.731  0.0761 -0.1509  0.5066
  243_EC     C5 1457   2.435   0.460   1.894  0.2632 -0.2894 -0.7654
  243_EC     C6 1458   2.397   0.536   1.768  0.1755  0.2660 -0.4062
  244_EC     O1 1459   2.947   1.510   2.179 -0.2692  0.4768 -0.3848
  244_EC     C2 1460   2.880   1.496   2.081 -0.1014 -0.1434 -0.4129
  244_EC     O3 1461   2.931   1.476   1.956  0.3094 -0.4575 -0.1970
  244_EC     O4 1462   2.794   1.391   2.081 -0.4661  0.1474  0.4046
  244_EC     C5 1463   2.826   1.458   1.861  0.0415 -0.2754  0.0630
  244_EC     C6 1464   2.724   1.398   1.956 -0.1493  0.3085  0.2344
  245_EC     O1 1465   3.293   3.932   3.552 -0.3483  0.1037 -0.2500
  245_EC     C2 1466   3.368   3.879   3.474 -0.0760 -0.2112  0.2253
  245_EC     O3 1467   3.497   3.919   3.457 -0.1680 -0.1313 -0.2716
  245_EC     O4 1468   3.352   3.757   3.417  0.0902  0.0515 -0.3865
  245_EC     C5 1469   3.568   3.814   3.391  0.2522  0.4231 -0.7132
  245_EC     C6 1470   3.455   3.741   3.319  0.4401 -0.6881  0.0909
  246_EC     O1 1471   0.446   2.134   0.342 -0.2427  0.1642 -0.0623
  246_EC     C2 1472   0.403   2.242   0.312 -0.1060  0.2706  0.1227
  246_EC     O3 1473   0.274   2.278   0.332 -0.0649  0.3491  0.2468
  246_EC     O4 1474   0.469   2.361   0.311 -0.4754  0.4751  0.0976
  246_EC     C5 1475   0.247   2.382   0.237  0.1341  0.2677  0.1025
  246_EC     C6 1476   0.386   2.445   0.231  0.1313  0.1909 -0.8363
  247_EC     O1 1477   1.241   3.296   1.291  0.0028  0.0544  0.5931
  247_EC     C2 1478   1.328   3.326   1.214 -0.4466  0.2365  0.1489
  247_EC     O3 1479   1.437   3.394   1.259 -0.0343 -0.1221 -0.2954
  247_EC     O4 1480   1.397   3.221   1.163  0.0820  0.5878  0.1378
  247_EC     C5 1481   1.519   3.406   1.143  0.2800 -0.0330 -0.0639
  247_EC     C6 1482   1.497   3.272   1.074  0.4458 -0.1503  0.1089
  248_EC     O1 1483   1.906   1.342   2.608 -0.5003  0.3246  0.0717
  248_EC     C2 1484   2.011   1.288   2.630 -0.4120  0.4769  0.0253
  248_EC     O3 1485   2.122   1.315   2.557  0.0161 -0.2286  0.4082
  248_EC     O4 1486   2.065   1.271   2.754  0.3209 -0.0228 -0.3567
  248_EC     C5 1487   2.234   1.235   2.597 -0.2179 -0.6570  0.2162
  248_EC     C6 1488   2.203   1.234   2.746  0.2868 -0.3009  0.3267
  249_EC     O1 1489   3.157   1.021   0.288  0.2361 -0.2987  0.3642
  249_EC     C2 1490   3.193   1.005   0.402 -0.2297  0.8151  0.6731
  249_EC     O3 1491   3.281   1.085   0.468  0.2449  0.6125  0.2905
  249_EC     O4 1492   3.242   0.884   0.439 -0.4264  0.4081 -0.3809
  249_EC     C5 1493   3.306   1.035   0.600 -0.6890  0.1611  0.3038
  249_EC     C6 1494   3.268   0.889   0.579 -0.6330  0.2358 -0.3350
  250_EC     O1 1495   0.874   2.674   2.743 -0.4995  0.7085 -0.9497
  250_EC     C2 1496   0.959   2.756   2.762 -0.3684  0.3170  0.2852
  250_EC     O3 1497   1.013   2.793   2.881  0.0343  0.8909 -0.0666
  250_EC     O4 1498   0.971   2.865   2.681  0.0688  0.2821  0.3032
  250_EC     C5 1499   1.075   2.921   2.871  0.0631  0.9482  0.7772
  250_EC     C6 1500   1.089   2.936   2.720  0.0836  0.0495  0.6830
  251_EC     O1 1501   2.884   2.287   3.193  0.1110  0.3224 -0.1369
  251_EC     C2 1502   2.798   2.371   3.189 -0.3800 -0.1850 -0.5354
  251_EC     O3 1503   2.813   2.499   3.232 -0.1472 -0.3544 -0.1072
  251_EC     O4 1504   2.717   2.388   3.081 -0.6714  0.6102 -0.1996
  251_EC     C5 1505   2.679   2.550   3.233  0.1300  0.3857  0.2415
  251_EC     C6 1506   2.610   2.473   3.122 -0.5009  0.4626  0.5775
  252_EC     O1 1507   2.663   0.150   0.819 -0.8544  0.0164 -0.2860
  252_EC     C2 1508   2.612   0.255   0.847  0.0664  0.4695 -0.2732
  252_EC     O3 1509   2.585   0.351   0.756 -0.7893  0.0691 -0.4532
  252_EC     O4 1510   2.501   0.258   0.925 -0.1627 -0.0143 -0.5775
  252_EC     C5 1511   2.533   0.461   0.831  0.0531  0.1346  0.0496
  252_EC     C6 1512   2.491   0.396   0.962 -0.0267 -0.1274 -0.1063
  253_EC     O1 1513   1.872   2.775   2.757  0.5179  0.2103 -0.1216
  253_EC     C2 1514   1.839   2.890   2.753  0.3385  0.1602 -0.0678
  253_EC     O3 1515   1.776   2.951   2.648 -0.1122 -0.1864 -0.0032
  253_EC     O4 1516   1.914   2.985   2.815  0.2135 -0.0687  0.4350
  253_EC     C5 1517   1.746   3.083   2.692  0.0106 -0.0465 -0.3327
  253_EC     C6 1518   1.839   3.106   2.810  0.1876 -0.1110 -0.4587
  254_EC     O1 1519   1.018   3.022   1.987  0.0685  0.0970 -0.0775
  254_EC     C2 1520   0.921   3.052   1.923 -0.0441 -0.0446  0.0240
  254_EC     O3 1521   0.802   3.060   1.987 -0.0750 -0.2723 -0.0043
  254_EC     O4 1522   0.918   3.146   1.824  0.2644 -0.4409 -0.3673
  254_EC     C5 1523   0.703   3.092   1.888  0.1196 -0.9125 -0.4146
  254_EC     C6 1524   0.784   3.151   1.773  0.1616 -0.3104 -0.0841
  255_EC     O1 1525   2.284   1.562   3.562 -0.0502 -0.6337  0.1567
  255_EC     C2 1526   2.211   1.620   3.486  0.0905 -0.2004  0.3448
  255_EC     O3 1527   2.122   1.553   3.407  0.1675 -0.3999  0.4264
  255_EC     O4 1528   2.130   1.721   3.526  0.7041  0.3479  0.2108
  255_EC     C5 1529   2.066   1.648   3.316 -0.1004 -0.3984  0.5931
  255_EC     C6 1530   2.074   1.771   3.405 -0.4323 -0.2818  0.4636
  256_EC     O1 1531   3.459   1.426   1.426  0.1018  0.1624  0.1168
  256_EC     C2 1532   3.563   1.367   1.433  0.0151  0.0346  0.3302
  256_EC     O3 1533   3.668   1.406   1.355 -0.0045  0.1670  0.3709
  256_EC     O4 1534   3.568   1.231   1.437 -0.0493 -0.0059 -0.6290
  256_EC     C5 1535   3.778   1.321   1.387  0.0244 -0.1985 -0.6592
  256_EC     C6 1536   3.707   1.199   1.443 -0.0335  0.1834  0.1151
  257_EC     O1 1537   3.559   2.183   2.637 -0.2562  1.0161 -0.6036
  257_EC     C2 1538   3.657   2.183   2.568  0.1150 -0.2078 -0.0928
  257_EC     O3 1539   3.692   2.069   2.503 -0.2055 -0.4756  0.1984
  257_EC     O4 1540   3.695   2.284   2.485 -0.2324 -0.1235 -0.1482
  257_EC     C5 1541   3.827   2.095   2.464 -0.4428  0.0945 -0.2498
  257_EC     C6 1542   3.825   2.245   2.439 -0.0057  0.1840  0.2292
  258_EC     O1 1543   2.921   0.327   0.949  0.4208  0.4647  0.0516
  258_EC     C2 1544   2.897   0.431   1.004  0.7390  0.5855 -0.0380
  258_EC     O3 1545   2.805   0.521   0.959  0.1744 -0.0483 -0.1663
  258_EC     O4 1546   2.996   0.509   1.054  0.5852  1.0016 -0.3719
  258_EC     C5 1547   2.800   0.627   1.054 -0.2551 -0.2426  0.0308
  258_EC     C6 1548   2.936   0.620   1.121 -0.3699  0.0998  0.3008
  259_EC     O1 1549   2.675   3.015   1.214  0.0686  0.2877 -0.3794
  259_EC     C2 1550   2.560   2.982   1.205  0.1210  0.0516 -0.1761
  259_EC     O3 1551   2.485   2.934   1.308 -0.2518  0.4317 -0.2691
  259_EC     O4 1552   2.487   3.004   1.093 -0.0292 -0.1137 -0.1109
  259_EC     C5 1553   2.348   2.957   1.273 -0.4631 -0.1051  0.1871
  259_EC     C6 1554   2.360   2.944   1.122  0.0079 -0.0340  0.2160
  260_EC     O1 1555   1.523   0.538   3.279 -0.0192  0.1157  0.3672
  260_EC     C2 1556   1.420   0.496   3.235 -0.2656  0.9598  0.1234
  260_EC     O3 1557   1.343   0.409   3.306  0.0462  0.7997  0.2659
  260_EC     O4 1558   1.411   0.443   3.109  0.6566 -0.1152  0.4931
  260_EC     C5 1559   1.223   0.390   3.230  0.1307  0.3772  0.2364
  260_EC     C6 1560   1.274   0.411   3.088  0.7524 -0.4146  0.3337
  261_EC     O1 1561   1.745   1.962   2.066 -0.1400 -0.6459 -0.4473
  261_EC     C2 1562   1.791   2.036   1.984  0.3916 -0.0261  0.3967
  261_EC     O3 1563   1.850   1.986   1.872 -0.2315 -0.1562  0.1245
  261_EC     O4 1564   1.818   2.169   1.999  0.4385 -0.0700  0.6977
  261_EC     C5 1565   1.898   2.101   1.803 -0.4975  0.0271  0.2417
  261_EC     C6 1566   1.934   2.192   1.920 -0.2030  0.3907 -0.1265
  262_EC     O1 1567   0.542   1.052   0.308 -0.5202  0.2181 -0.7290
  262_EC     C2 1568   0.628   0.970   0.296 -0.7794 -0.2109  0.2446
  262_EC     O3 1569   0.614   0.878   0.197 -0.0069 -0.0086 -0.0559
  262_EC     O4 1570   0.666   0.891   0.400  0.6952  0.3078  0.1094
  262_EC     C5 1571   0.731   0.796   0.204 -0.4155 -0.5445  0.6535
  262_EC     C6 1572   0.772   0.808   0.350  0.3482 -0.3341  0.4289
  263_EC     O1 1573   2.684   2.681   2.837  0.1232  0.1750  0.0522
  263_EC     C2 1574   2.650   2.593   2.762 -0.4268  0.1210  0.3580
  263_EC     O3 1575   2.557   2.507   2.812 -0.5669  0.1573  0.1584
  263_EC     O4 1576   2.744   2.513   2.706 -0.5018  0.1006  0.2614
  263_EC     C5 1577   2.528   2.425   2.698  0.1714 -0.1870  0.2150
  263_EC     C6 1578   2.660   2.432   2.623 -0.0658  0.0945 -0.1792
  264_EC     O1 1579   0.358   3.279   3.772  0.4180  0.1862 -0.5124
  264_EC     C2 1580   0.352   3.165   3.734 -0.0566  0.0734 -0.1086
  264_EC     O3 1581   0.383   3.126   3.607 -0.0612 -0.2210 -0.0197
  264_EC     O4 1582   0.359   3.051   3.807  0.5380  0.1872  0.0240
  264_EC     C5 1583   0.378   2.986   3.582 -0.5051 -0.1532 -0.3060
  264_EC     C6 1584   0.330   2.941   3.719  0.2492  0.2161  0.0812
  265_EC     O1 1585   1.490   1.094   0.510  0.2144  0.0228  0.1370
  265_EC     C2 1586   1.550   1.059   0.412  0.0194  0.0806 -0.0025
  265_EC     O3 1587   1.668   0.992   0.415  0.0572  0.1392 -0.1763
  265_EC     O4 1588   1.485   1.006   0.305  0.1150 -0.1960  0.0763
  265_EC     C5 1589   1.709   0.993   0.278  0.1441 -0.6875 -0.1614
  265_EC     C6 1590   1.580   1.000   0.198  0.0325 -0.6060  0.0232
  266_EC     O1 1591   3.660   1.324   1.761  0.4395 -0.1572  1.2369
  266_EC     C2 1592   3.617   1.432   1.791  0.5586  0.3950 -0.4859
  266_EC     O3 1593   3.695   1.536   1.831  0.1200  0.3672  0.4692
  266_EC     O4 1594   3.499   1.479   1.742  0.4464  0.7337  0.0902
  266_EC     C5 1595   3.613   1.650   1.853  0.0169  0.3757  0.0404
  266_EC     C6 1596   3.477   1.607   1.801 -0.0373  0.7564 -0.1379
  267_EC     O1 1597   0.655   0.876   0.760 -0.3096 -0.1924 -0.0028
  267_EC     C2 1598   0.691   0.987   0.731  0.2771 -0.4034 -0.0886
  267_EC     O3 1599   0.616   1.067   0.651  0.1029 -0.4774 -0.0010
  267_EC     O4 1600   0.733   1.068   0.832  0.3457 -0.6544  0.0879
  267_EC     C5 1601   0.710   1.172   0.628 -0.0021 -0.3456  0.1673
  267_EC     C6 1602   0.782   1.183   0.762 -0.6287  0.0143  0.4786
  268_EC     O1 1603   1.324   3.941   2.002  0.0003  0.1611 -0.6503
  268_EC     C2 1604   1.340   3.823   1.986  0.1946  0.0381  0.3797
  268_EC     O3 1605   1.284   3.726   2.064 -0.1676  0.2086  0.3352
  268_EC     O4 1606   1.448   3.761   1.932  0.3532  0.4625  0.2140
  268_EC     C5 1607   1.279   3.610   1.980  0.4264 -0.2063  0.8641
  268_EC     C6 1608   1.407   3.628   1.900  0.1668  0.4279  0.5882
  269_EC     O1 1609   1.987   1.821   2.529  0.0989  0.2565 -0.1247
  269_EC     C2 1610   2.043   1.855   2.429  0.3548 -0.3313 -0.1807
  269_EC     O3 1611   1.990   1.951   2.349 -0.0807 -0.3987  0.0252
  269_EC     O4 1612   2.179   1.861   2.427  0.3478 -0.1360 -0.0310
  269_EC     C5 1613   2.077   1.948   2.235 -0.3030 -0.0892 -0.1541
  269_EC     C6 1614   2.208   1.895   2.292 -0.2872 -0.0402 -0.1448
  270_EC     O1 1615   1.631   2.197   1.077 -0.3235 -0.0597 -0.1067
  270_EC     C2 1616   1.537   2.195   1.151 -0.3114  0.7255 -0.0640
  270_EC     O3 1617   1.548   2.238   1.280 -0.2278 -0.0376  0.1904
  270_EC     O4 1618   1.410   2.232   1.118 -0.3490  0.1952 -0.5190
  270_EC     C5 1619   1.422   2.221   1.346 -0.2232 -0.5427  0.0679
  270_EC     C6 1620   1.323   2.212   1.230  0.1130 -0.2938 -0.2408
  271_EC     O1 1621   2.180   0.564   2.331 -0.3386 -0.0486  0.2084
  271_EC     C2 1622   2.103   0.479   2.366  0.3521 -0.5388  0.5546
  271_EC     O3 1623   2.019   0.504   2.470 -0.2533  0.0499 -0.0663
  271_EC     O4 1624   2.011   0.433   2.277  0.5916  0.1677 -0.0590
  271_EC     C5 1625   1.957   0.379   2.503  0.2841 -0.1090  0.3658
  271_EC     C6 1626   1.956   0.330   2.359  0.4774  0.4195  0.1808
  272_EC     O1 1627   2.213   0.522   3.312  0.0686 -0.1246  0.4015
  272_EC     C2 1628   2.095   0.541   3.326 -0.1076 -0.8145 -0.0663
  272_EC     O3 1629   2.030   0.660   3.314 -0.0454 -0.7361  0.3554
  272_EC     O4 1630   1.997   0.447   3.336 -0.1853 -0.7983 -0.6434
  272_EC     C5 1631   1.894   0.644   3.356 -0.4152 -0.0432 -0.5523
  272_EC     C6 1632   1.865   0.499   3.318  0.0005 -0.1955 -0.2891
  273_EC     O1 1633   0.801   1.265   2.489 -0.2441 -0.6089  0.1085
  273_EC     C2 1634   0.703   1.327   2.459  0.2043  0.1170  0.1226
  273_EC     O3 1635   0.712   1.446   2.394 -0.1305  0.2374  0.2965
  273_EC     O4 1636   0.592   1.327   2.537  0.3567  0.1577  0.3411
  273_EC     C5 1637   0.586   1.514   2.401 -0.4122 -0.2499  0.0342
  273_EC     C6 1638   0.498   1.407   2.464 -0.1086 -0.2233  0.5092
  274_EC     O1 1639   0.931   2.477   2.221 -0.1375 -0.1256  0.2002
  274_EC     C2 1640   0.927   2.595   2.241 -0.3158 -0.1456  0.2880
  274_EC     O3 1641   1.039   2.672   2.234 -0.2859 -0.2462 -0.4463
  274_EC     O4 1642   0.836   2.666   2.313 -0.4575 -0.3012  0.2625
  274_EC     C5 1643   0.996   2.808   2.219 -0.1381 -0.1189  0.2272
  274_EC     C6 1644   0.851   2.799   2.265 -0.1318 -0.3561  0.2050
  275_EC     O1 1645   3.977   1.401   1.078  0.2471 -0.2674 -0.6289
  275_EC     C2 1646   3.861   1.418   1.053  0.2191 -0.0062 -0.3315
  275_EC     O3 1647   3.760   1.338   1.097  0.3313  0.1288  0.1770
  275_EC     O4 1648   3.811   1.544   1.062  0.0476 -0.1069  0.1486
  275_EC     C5 1649   3.647   1.384   1.023  0.1707 -0.5062  0.0188
  275_EC     C6 1650   3.672   1.534   1.029  0.2532 -0.4917 -0.6251
  276_EC     O1 1651   0.167   3.439   2.586  0.0356 -0.0199 -0.0501
  276_EC     C2 1652   0.049   3.424   2.597 -0.1212  1.3080  0.2672
  276_EC     O3 1653   3.958   3.404   2.712  0.2684 -0.5984  0.2107
  276_EC     O4 1654   3.945   3.399   2.492  0.2442  0.3502  0.1924
  276_EC     C5 1655   3.845   3.325   2.676 -0.5860  0.5697  0.2729
  276_EC     C6 1656   3.812   3.391   2.543  0.1321  0.1448 -0.1253
  277_EC     O1 1657   1.363   1.320   2.908  0.9667 -0.2491 -0.2437
  277_EC     C2 1658   1.370   1.265   3.014  0.9524 -0.1488 -0.1911
  277_EC     O3 1659   1.448   1.308   3.117 -0.2922  0.0016  0.7087
  277_EC     O4 1660   1.380   1.130   3.026  0.2603 -0.1754  0.1233
  277_EC     C5 1661   1.428   1.225   3.232 -0.2077 -0.4172  0.4261
  277_EC     C6 1662   1.381   1.097   3.166  0.3301 -0.4293  0.0632
  278_EC     O1 1663   3.632   1.019   2.624  0.0622 -0.2497 -0.3859
  278_EC     C2 1664   3.582   0.946   2.705 -0.1743  0.3030 -0.0292
  278_EC     O3 1665   3.652   0.897   2.811 -0.0779 -0.2439 -0.3425
  278_EC     O4 1666   3.454   0.963   2.748 -0.0116 -0.0806  0.6241
  278_EC     C5 1667   3.562   0.818   2.890 -0.1282  0.1250 -0.0240
  278_EC     C6 1668   3.428   0.845   2.824 -0.1864 -0.5894 -0.2104
  279_EC     O1 1669   1.364   1.885   2.600 -0.0333  0.4418 -0.1352
  279_EC     C2 1670   1.375   1.769   2.630 -0.2663  0.3989 -0.2104
  279_EC     O3 1671   1.262   1.697   2.648 -0.0151  0.1045  0.2068
  279_EC     O4 1672   1.458   1.681   2.568 -0.0263  0.3715  0.1451
  279_EC     C5 1673   1.311   1.580   2.714 -0.2036 -0.2762 -0.3163
  279_EC     C6 1674   1.437   1.556   2.633  0.2508  0.3456  0.1889
  280_EC     O1 1675   0.055   0.331   3.916  0.1349 -0.0377 -0.4534
  280_EC     C2 1676   0.169   0.366   3.905 -0.0172  0.6249  0.0306
  280_EC     O3 1677   0.224   0.385   3.782 -0.0022 -0.2450 -0.1027
  280_EC     O4 1678   0.273   0.310   3.972  0.0867  0.4157 -0.3052
  280_EC     C5 1679   0.355   0.439   3.802  0.0736 -0.5629  0.2891
  280_EC     C6 1680   0.383   0.397   3.945  0.3949  0.2802  0.4798
  281_EC     O1 1681   0.077   3.471   1.293  0.3012  0.0208  0.1260
  281_EC     C2 1682   0.010   3.378   1.328  0.0086 -0.0123 -0.5022
  281_EC     O3 1683   3.974   3.337   1.457  0.2430  0.2925 -0.3749
  281_EC     O4 1684   0.015   3.259   1.262  0.0444 -0.1479 -0.2550
  281_EC     C5 1685   3.860   3.250   1.453  0.0209  0.5693 -0.0614
  281_EC     C6 1686   3.882   3.189   1.315  0.3512 -0.2081  0.3302
  282_EC     O1 1687   0.837   0.953   1.225 -0.2875  0.1354  0.1776
  282_EC     C2 1688   0.876   1.066   1.210 -0.2384  0.1004  0.0430
  282_EC     O3 1689   0.929   1.113   1.093 -0.1393 -0.2179 -0.0436
  282_EC     O4 1690   0.888   1.161   1.306  0.2614  0.0986 -0.0112
  282_EC     C5 1691   0.942   1.255   1.096  0.4133 -0.2715  0.2449
  282_EC     C6 1692   0.948   1.276   1.246 -0.1122  0.3963  0.1788
  283_EC     O1 1693   0.671   0.512   3.267 -0.1776 -0.1039 -0.1626
  283_EC     C2 1694   0.596   0.573   3.339 -0.0684  0.1039 -0.2219
  283_EC     O3 1695   0.582   0.708   3.333  0.3396  0.1657  0.2006
  283_EC     O4 1696   0.583   0.552   3.473  0.2731  0.1767 -0.1780
  283_EC     C5 1697   0.470   0.741   3.415  0.5002  0.5784  0.2556
  283_EC     C6 1698   0.461   0.619   3.505  0.2456  0.1845 -0.2985
  284_EC     O1 1699   1.435   2.340   3.439 -0.3173  0.5021 -0.0726
  284_EC     C2 1700   1.451   2.358   3.322  0.3631  0.2524 -0.0236
  284_EC     O3 1701   1.497   2.477   3.274  0.5338  0.1712 -0.0610
  284_EC     O4 1702   1.528   2.272   3.250  0.2316 -0.2149  0.3868
  284_EC     C5 1703   1.510   2.468   3.132  0.5972 -0.0824 -0.0400
  284_EC     C6 1704   1.530   2.319   3.114 -0.4504 -0.2773  0.3506
  285_EC     O1 1705   2.650   3.033   0.564  0.1886  0.0045 -0.1830
  285_EC     C2 1706   2.686   2.981   0.666 -0.6665 -0.2560 -0.0095
  285_EC     O3 1707   2.607   2.891   0.732 -0.5303 -0.3821 -0.0182
  285_EC     O4 1708   2.730   3.060   0.767  0.2320 -0.0127 -0.5788
  285_EC     C5 1709   2.679   2.850   0.849 -0.4595 -0.1801  0.0096
  285_EC     C6 1710   2.747   2.981   0.885 -0.5455 -0.0049 -0.4530
  286_EC     O1 1711   1.382   3.608   2.713 -0.2132 -0.3430 -0.2001
  286_EC     C2 1712   1.389   3.694   2.629 -0.4780  0.2002  0.3223
  286_EC     O3 1713   1.383   3.660   2.497  0.4515  0.3051  0.2479
  286_EC     O4 1714   1.446   3.816   2.647  0.3596 -0.0748 -0.3812
  286_EC     C5 1715   1.440   3.770   2.426 -0.0873  0.2517 -0.2749
  286_EC     C6 1716   1.435   3.886   2.524 -0.4423  0.1616 -0.1844
  287_EC     O1 1717   1.505   3.592   0.853 -0.4606  0.3446 -0.0801
  287_EC     C2 1718   1.515   3.711   0.847 -0.0221  0.3196  0.1547
  287_EC     O3 1719   1.546   3.786   0.957 -0.5908  0.2867  0.3426
  287_EC     O4 1720   1.559   3.785   0.742 -0.4178  0.1994 -0.0973
  287_EC     C5 1721   1.516   3.920   0.919 -0.0948  0.2333 -0.2512
  287_EC     C6 1722   1.528   3.922   0.767 -0.6518  0.1842 -0.2972
  288_EC     O1 1723   3.123   1.381   0.570 -0.1852 -0.4507  0.1000
  288_EC     C2 1724   3.020   1.339   0.525 -0.5243  0.3826  0.0885
  288_EC     O3 1725   2.956   1.225   0.561 -0.2399  0.2898  0.3015
  288_EC     O4 1726   2.932   1.429   0.473  0.1062  0.5753 -0.6700
  288_EC     C5 1727   2.833   1.219   0.489 -0.2265  0.1813  0.2879
  288_EC     C6 1728   2.839   1.346   0.405  0.3823 -0.1451 -0.1789
  289_EC     O1 1729   3.677   3.686   1.632  0.2637 -0.5979  0.0622
  289_EC     C2 1730   3.646   3.644   1.524 -0.1732 -0.0965 -0.0137
  289_EC     O3 1731   3.516   3.643   1.484 -0.3468 -0.0009  0.5472
  289_EC     O4 1732   3.726   3.573   1.440 -0.3859 -0.6106  0.2212
  289_EC     C5 1733   3.513   3.606   1.346  0.3163 -0.3381  0.6172
  289_EC     C6 1734   3.642   3.527   1.333  0.0091 -0.7380 -0.0366
  290_EC     O1 1735   2.509   0.629   2.194 -0.1998 -0.3660  0.6705
  290_EC     C2 1736   2.410   0.695   2.176  0.2230  0.1005  0.0170
  290_EC     O3 1737   2.386   0.819   2.226 -0.2144  0.2147 -0.4623
  290_EC     O4 1738   2.349   0.697   2.054  0.3783  0.2636 -0.0583
  290_EC     C5 1739   2.247   0.839   2.199 -0.1947  0.1074 -0.6477
  290_EC     C6 1740   2.229   0.773   2.064  0.0653 -0.1624 -0.5538
  291DMC     O1 1741   0.478   1.684   2.665 -0.6155 -0.0289 -0.0710
  291DMC     C2 1742   0.509   1.792   2.708 -0.9446 -0.0671  0.2658
  291DMC     O3 1743   0.607   1.808   2.798 -0.3781 -0.2778 -0.3104
  291DMC     O4 1744   0.465   1.911   2.662 -0.3151 -0.1223 -0.4910
  291DMC     C5 1745   0.653   1.684   2.846  0.1004 -0.2745 -0.7411
  291DMC     C6 1746   0.354   1.882   2.579 -0.2288 -0.8108 -0.3777
  292DMC     O1 1747   2.581   2.477   1.505  0.4074  0.3704  0.0659
  292DMC     C2 1748   2.580   2.565   1.587  0.0304  0.3895  0.0396
  292DMC     O3 1749   2.491   2.563   1.688 -0.1425 -0.0036 -0.1165
  292DMC     O4 1750   2.622   2.689   1.556  0.5180  0.1795 -0.1510
  292DMC     C5 1751   2.420   2.443   1.708 -0.5356  0.2621  0.0860
  292DMC     C6 1752   2.644   2.710   1.418  0.5734 -0.4609 -0.2418
  293DMC     O1 1753   1.739   3.277   0.876 -0.2436 -0.5080 -0.1687
  293DMC     C2 1754   1.792   3.253   0.771 -0.6124 -0.4973 -0.3618
  293DMC     O3 1755   1.840   3.337   0.678  0.3390 -0.2095  0.3744
  293DMC     O4 1756   1.800   3.130   0.716  0.4626 -0.5106 -0.1956
  293DMC     C5 1757   1.818   3.476   0.689 -0.1983 -0.2583 -0.0424
  293DMC     C6 1758   1.739   3.034   0.799  0.0715 -0.1918 -0.1084
  294DMC     O1 1759   0.365   2.170   2.290  0.2731 -0.2210 -1.0103
  294DMC     C2 1760   0.247   2.183   2.307  0.3601 -0.3792 -0.2564
  294DMC     O3 1761   0.153   2.168   2.212  0.2035  0.0164 -0.1637
  294DMC     O4 1762   0.198   2.236   2.420  0.3022 -0.8636 -0.0500
  294DMC     C5 1763   0.202   2.114   2.091  0.1442 -0.7058  0.1339
  294DMC     C6 1764   0.301   2.265   2.512 -0.5039  0.2803  0.5246
  295DMC     O1 1765   0.466   2.905   1.809 -0.3486  0.4131  0.0612
  295DMC     C2 1766   0.424   2.794   1.827 -0.3830  0.4472  0.1858
  295DMC     O3 1767   0.478   2.700   1.907 -0.0371  0.3909 -0.1142
  295DMC     O4 1768   0.330   2.737   1.751  0.4527 -0.5856 -0.0827
  295DMC     C5 1769   0.593   2.743   1.975 -0.1030 -0.0066  0.2514
  295DMC     C6 1770   0.269   2.822   1.656  0.0428  0.0357  0.7334
  296DMC     O1 1771   0.394   1.759   3.078 -0.2307 -0.2399  0.4256
  296DMC     C2 1772   0.337   1.858   3.042 -0.2785 -0.4072  0.0333
  296DMC     O3 1773   0.376   1.983   3.075  0.1897 -0.3052 -0.8441
  296DMC     O4 1774   0.210   1.857   3.000 -0.0440 -0.1257 -0.7072
  296DMC     C5 1775   0.496   1.994   3.148 -0.4651 -0.3463  0.2627
  296DMC     C6 1776   0.166   1.726   2.972 -0.0326 -0.1422 -0.6473
  297DMC     O1 1777   2.637   0.354   3.306 -0.5919  0.6914 -0.5277
  297DMC     C2 1778   2.561   0.262   3.321 -0.2734  0.4557 -0.3489
  297DMC     O3 1779   2.521   0.183   3.219 -0.0574  0.3518 -0.3541
  297DMC     O4 1780   2.468   0.255   3.418  0.1751 -0.3430  0.0376
  297DMC     C5 1781   2.586   0.229   3.103  0.5994  0.6054  0.1045
  297DMC     C6 1782   2.486   0.358   3.513 -0.5935 -0.2274  0.0624
  298DMC     O1 1783   0.037   2.210   2.691  0.0577  0.4448  0.3686
  298DMC     C2 1784   0.059   2.196   2.808 -0.6628  0.8663  0.5624
  298DMC     O3 1785   0.116   2.292   2.883 -0.0830  0.4743  0.6325
  298DMC     O4 1786   0.011   2.109   2.898  0.2495 -0.1907  0.0466
  298DMC     C5 1787   0.145   2.407   2.806 -0.2943 -0.2417 -0.5212
  298DMC     C6 1788   3.921   1.997   2.848 -0.5822  0.4915 -0.3402
  299DMC     O1 1789   0.982   0.130   1.627 -0.0723 -0.4849  0.0127
  299DMC     C2 1790   0.928   0.055   1.550 -0.3503  0.2436 -0.5231
  299DMC     O3 1791   0.987   0.002   1.442 -0.5481  0.6749 -0.8445
  299DMC     O4 1792   0.794   0.046   1.546 -0.3713  0.4563 -0.3135
  299DMC     C5 1793   1.114   0.060   1.424 -0.1849  0.3060  0.4306
  299DMC     C6 1794   0.738   0.118   1.653  0.2168  0.3534  0.0688
  300DMC     O1 1795   2.696   2.008   3.011  0.3133  0.3837 -0.1471
  300DMC     C2 1796   2.652   2.101   2.950 -0.5024 -0.5159 -0.9696
  300DMC     O3 1797   2.527   2.149   2.958 -0.2662 -0.0633  0.1540
  300DMC     O4 1798   2.720   2.178   2.864 -0.0538 -0.1162 -0.2646
  300DMC     C5 1799   2.444   2.066   3.037  0.0842 -0.3724  0.2001
  300DMC     C6 1800   2.861   2.178   2.878 -0.0779  0.1922  0.0153
  301DMC     O1 1801   1.241   2.056   0.261  0.1424  0.2630  0.4310
  301DMC     C2 1802   1.349   2.091   0.223  0.0183 -0.1897 -0.3636
  301DMC     O3 1803   1.378   2.218   0.189 -0.0964 -0.0694 -0.0198
  301DMC     O4 1804   1.460   2.017   0.211  0.2460  0.0136  0.3879
  301DMC     C5 1805   1.260   2.294   0.190 -0.0702 -0.0299  0.2254
  301DMC     C6 1806   1.437   1.881   0.240  0.1590 -0.1305 -0.3303
  302DMC     O1 1807   3.211   2.580   3.064  0.1029 -0.2814 -0.0290
  302DMC     C2 1808   3.175   2.479   3.010  0.0715 -0.3208  0.0657
  302DMC     O3 1809   3.250   2.368   3.005  0.0237 -0.3481 -0.0445
  302DMC     O4 1810   3.058   2.467   2.944 -0.0171  0.1187  0.1361
  302DMC     C5 1811   3.372   2.373   3.075 -0.0061  0.7377 -0.0443
  302DMC     C6 1812   2.977   2.582   2.934 -0.7783 -0.3804  0.5423
  303DMC     O1 1813   0.818   2.466   3.432 -0.1352  0.0528 -0.1999
  303DMC     C2 1814   0.828   2.347   3.423  0.4625  0.0496  0.4422
  303DMC     O3 1815   0.902   2.274   3.508 -0.2635 -0.1050  0.9566
  303DMC     O4 1816   0.744   2.257   3.369  0.0453  0.2808  0.6957
  303DMC     C5 1817   0.988   2.369   3.566  0.1756  0.0151  0.1319
  303DMC     C6 1818   0.644   2.311   3.287  0.1444 -0.2060  0.2448
  304DMC     O1 1819   0.203   3.961   2.111  0.2486 -0.2296  0.0323
  304DMC     C2 1820   0.229   3.918   2.001 -0.7611 -0.2986 -0.1935
  304DMC     O3 1821   0.279   3.794   1.988  0.0045 -0.0384  0.1685
  304DMC     O4 1822   0.217   0.010   1.888  0.4886  0.1991 -0.0280
  304DMC     C5 1823   0.279   3.735   2.116  0.3250 -0.2026  0.0919
  304DMC     C6 1824   0.154   0.136   1.899 -0.1979 -0.2051  0.6897
  305DMC     O1 1825   3.455   3.052   0.594 -0.3213 -0.5687  0.5072
  305DMC     C2 1826   3.433   2.962   0.518 -0.4095 -0.0477 -0.0971
  305DMC     O3 1827   3.431   2.835   0.563 -0.0116  0.0121  0.0968
  305DMC     O4 1828   3.367   2.974   0.402  0.0635  0.1852 -0.3459
  305DMC     C5 1829   3.444   2.840   0.704 -0.8875  0.3152  0.1798
  305DMC     C6 1830   3.333   3.108   0.371 -0.0138  0.3105  0.2746
  306DMC     O1 1831   1.232   0.687   1.196 -0.1557 -0.6099  0.2102
  306DMC     C2 1832   1.163   0.643   1.283 -0.4760 -0.3691  0.0784
  306DMC     O3 1833   1.144   0.690   1.408 -0.4120  0.0413 -0.0644
  306DMC     O4 1834   1.071   0.550   1.250 -0.0394 -0.6908 -0.2377
  306DMC     C5 1835   1.247   0.771   1.459 -0.5799  0.2482 -0.0531
  306DMC     C6 1836   1.081   0.507   1.116 -0.1210 -0.2997 -0.3710
  307DMC     O1 1837   0.327   1.683   2.219 -0.1185  0.2525  0.3358
  307DMC     C2 1838   0.210   1.692   2.197 -0.0518  0.5224  0.0907
  307DMC     O3 1839   0.115   1.669   2.289  0.1376  0.7138  0.3333
  307DMC     O4 1840   0.143   1.702   2.081 -0.1334 -0.0587  0.0867
  307DMC     C5 1841   0.168   1.613   2.407  1.1145 -0.2621 -0.5419
  307DMC     C6 1842   0.235   1.712   1.975 -0.0459 -0.0772  0.1612
  308DMC     O1 1843   0.339   1.735   0.687  0.1924 -0.2857  0.1116
  308DMC     C2 1844   0.326   1.777   0.799  0.5571  0.0942  0.0165
  308DMC     O3 1845   0.323   1.908   0.830 -0.3603 -0.0194  0.4390
  308DMC     O4 1846   0.328   1.704   0.911  0.7948 -0.0272 -0.0665
  308DMC     C5 1847   0.312   1.993   0.718 -0.0248 -0.3702  0.1386
  308DMC     C6 1848   0.324   1.563   0.896  0.1806 -0.0657  0.3808
  309DMC     O1 1849   1.334   2.929   2.287 -0.1003 -0.4178 -0.0979
  309DMC     C2 1850   1.398   3.031   2.291 -0.4653 -0.1815 -0.1523
  309DMC     O3 1851   1.336   3.149   2.299  0.5638  0.3454  0.2319
  309DMC     O4 1852   1.530   3.045   2.311 -0.4517 -0.3639 -0.1093
  309DMC     C5 1853   1.201   3.133   2.339  0.4396  0.4482 -0.1416
  309DMC     C6 1854   1.604   2.927   2.332  0.0066 -0.0781 -0.1068
  310DMC     O1 1855   2.679   2.859   2.320 -0.1442 -0.1835 -0.0159
  310DMC     C2 1856   2.647   2.760   2.379  0.1730 -0.1793  0.1660
  310DMC     O3 1857   2.539   2.751   2.459 -0.1804  0.4020 -0.2410
  310DMC     O4 1858   2.700   2.639   2.353  0.0503 -0.1501 -0.2333
  310DMC     C5 1859   2.455   2.864   2.455 -0.9164 -0.1481 -0.5585
  310DMC     C6 1860   2.800   2.626   2.255  0.2314 -0.2957 -0.0305
  311DMC     O1 1861   1.395   0.777   2.342 -0.1412 -0.0259 -0.3109
  311DMC     C2 1862   1.308   0.702   2.377 -0.4052  0.0830 -0.7186
  311DMC     O3 1863   1.189   0.746   2.421 -0.0893  0.1181  0.1183
  311DMC     O4 1864   1.302   0.569   2.356 -0.0485  0.0275 -0.4943
  311DMC     C5 1865   1.175   0.884   2.395  0.4958  0.1660  0.0414
  311DMC     C6 1866   1.409   0.509   2.287  0.2299 -0.0420 -0.0012
  312DMC     O1 1867   2.808   0.885   3.050  0.2844  0.4250  0.1375
  312DMC     C2 1868   2.716   0.960   3.069  0.5440  0.8657 -0.3229
  312DMC     O3 1869   2.606   0.973   2.993  0.2356 -0.2276 -0.0769
  312DMC     O4 1870   2.716   1.060   3.160  0.0277 -0.2455  0.9333
  312DMC     C5 1871   2.617   0.886   2.883 -0.4580 -0.3762 -0.0336
  312DMC     C6 1872   2.834   1.062   3.237  0.7726 -0.0086 -0.1862
  313DMC     O1 1873   0.995   3.672   0.041  0.4206  0.8867  0.8594
  313DMC     C2 1874   1.112   3.650   0.032  0.1378 -0.4626  0.3020
  313DMC     O3 1875   1.195   3.665   0.137  0.0808 -0.0630  0.2911
  313DMC     O4 1876   1.188   3.653   3.899 -0.2223  0.6801  0.0723
  313DMC     C5 1877   1.143   3.686   0.267 -0.1741 -0.4893  0.2607
  313DMC     C6 1878   1.126   3.682   3.775  0.5519 -0.1366 -0.5212
  314DMC     O1 1879   1.275   1.356   2.070 -0.5051 -0.3709 -0.2272
  314DMC     C2 1880   1.329   1.419   1.984  0.8156 -0.7016  0.3383
  314DMC     O3 1881   1.443   1.490   1.992  0.5523 -0.1793 -0.3505
  314DMC     O4 1882   1.295   1.425   1.854 -0.3123 -0.1231  0.6486
  314DMC     C5 1883   1.521   1.463   2.107  0.4216  0.5551 -0.0867
  314DMC     C6 1884   1.191   1.337   1.818 -0.4609  0.2201  0.2257
  315DMC     O1 1885   1.795   1.937   3.407  0.1143  0.5518  0.0335
  315DMC     C2 1886   1.706   2.013   3.431 -0.2072  0.2754 -0.2831
  315DMC     O3 1887   1.720   2.147   3.437 -0.2033  0.2915 -0.6115
  315DMC     O4 1888   1.582   1.986   3.387 -0.1556 -0.0803 -0.2127
  315DMC     C5 1889   1.858   2.175   3.438 -0.1302 -0.0663 -0.3452
  315DMC     C6 1890   1.581   1.867   3.312  0.5376 -0.2417  0.0381
  316DMC     O1 1891   3.409   0.729   3.178 -0.4873 -0.2656 -0.3781
  316DMC     C2 1892   3.345   0.655   3.247 -0.0080 -0.2795  0.0578
  316DMC     O3 1893   3.215   0.635   3.217  0.1492 -0.0426 -0.8072
  316DMC     O4 1894   3.372   0.613   3.371 -0.0331 -0.4591  0.0031
  316DMC     C5 1895   3.172   0.741   3.135  0.2618  0.4858 -0.1897
  316DMC     C6 1896   3.500   0.654   3.415 -0.1777 -0.1364  0.1264
  317DMC     O1 1897   2.360   3.792   1.291  0.1617 -0.5505  0.5016
  317DMC     C2 1898   2.436   3.872   1.338 -0.3223  0.0121  0.3410
  317DMC     O3 1899   2.458   0.018   1.293 -0.2079  0.0409  0.4801
  317DMC     O4 1900   2.545   3.828   1.403 -0.1560 -0.5279 -0.2952
  317DMC     C5 1901   2.357   0.058   1.204 -0.0514 -0.3877  0.1065
  317DMC     C6 1902   2.533   3.690   1.429  0.1961 -0.5928 -0.4638
  318DMC     O1 1903   0.410   1.201   1.476  0.0111  0.3771 -0.4062
  318DMC     C2 1904   0.321   1.275   1.510  0.3884  0.7075 -0.1260
  318DMC     O3 1905   0.318   1.333   1.631  0.3095  0.1389  0.1515
  318DMC     O4 1906   0.221   1.323   1.435  0.4671  0.4294 -0.4110
  318DMC     C5 1907   0.404   1.272   1.725  0.6048  0.4268  0.0697
  318DMC     C6 1908   0.205   1.252   1.314  0.0860 -0.6887  0.2670
  319DMC     O1 1909   2.859   1.630   3.801  0.3695  0.6637  0.0442
  319DMC     C2 1910   2.851   1.610   3.919  0.2539 -0.8206 -0.1910
  319DMC     O3 1911   2.739   1.569   0.005 -0.1906  0.1644 -0.3191
  319DMC     O4 1912   2.937   1.653   0.035 -0.0286  0.0841 -0.3383
  319DMC     C5 1913   2.627   1.526   3.909 -0.5898 -0.0958  0.4411
  319DMC     C6 1914   3.061   1.692   3.957  0.1291 -0.1054 -0.1192
  320DMC     O1 1915   2.979   2.875   1.441  0.1410 -0.6413 -0.1964
  320DMC     C2 1916   2.940   2.908   1.549 -0.9506 -0.3339 -0.6698
  320DMC     O3 1917   2.918   2.816   1.644 -0.1168 -0.2438 -0.3863
  320DMC     O4 1918   2.878   3.023   1.584 -0.1051 -0.1237  0.1666
  320DMC     C5 1919   2.996   2.699   1.630  0.9818  0.4163  0.0542
  320DMC     C6 1920   2.890   3.114   1.477 -0.7290 -0.6216 -0.3294
  321DMC     O1 1921   3.935   3.698   0.633 -0.2929 -0.4027  0.1154
  321DMC     C2 1922   0.059   3.639   0.624 -0.4251 -0.6560  0.2477
  321DMC     O3 1923   0.115   3.583   0.515  0.7257 -0.1845  0.5779
  321DMC     O4 1924   0.156   3.681   0.707 -0.1531 -0.1827 -0.3051
  321DMC     C5 1925   0.029   3.616   0.408  0.7797 -0.3888  0.4715
  321DMC     C6 1926   0.125   3.772   0.810  0.5190 -0.2903 -0.0042
  322DMC     O1 1927   0.389   0.542   1.084  0.1034 -0.9903 -0.0321
  322DMC     C2 1928   0.270   0.549   1.071  0.1201  0.1747  0.3879
  322DMC     O3 1929   0.213   0.630   0.980 -0.1515  0.2692  0.6376
  322DMC     O4 1930   0.185   0.454   1.115  0.0498  0.2176  0.3452
  322DMC     C5 1931   0.309   0.711   0.917 -0.3557  0.0466  0.0336
  322DMC     C6 1932   0.263   0.350   1.170  1.2652  0.4368 -0.9040
  323DMC     O1 1933   3.862   2.989   1.920  0.4979 -0.8214 -0.4119
  323DMC     C2 1934   3.914   3.032   1.820  0.0574  0.1789 -0.2235
  323DMC     O3 1935   3.946   2.963   1.709  0.1963  0.1031 -0.1373
  323DMC     O4 1936   3.959   3.157   1.801 -0.5218  0.3885 -0.2356
  323DMC     C5 1937   3.874   2.842   1.719  0.2204  0.1198  0.2637
  323DMC     C6 1938   3.904   3.251   1.891 -0.3884  0.2650 -0.0246
  324DMC     O1 1939   0.434   3.069   2.487  0.7825 -0.7641  0.1703
  324DMC     C2 1940   0.427   3.004   2.587 -0.2717 -0.2673  0.4310
  324DMC     O3 1941   0.321   3.003   2.669 -0.2497 -0.1725  0.4603
  324DMC     O4 1942   0.538   2.957   2.647  0.0409  0.0795  0.1206
  324DMC     C5 1943   0.246   3.121   2.650 -0.5081 -0.3635  0.2945
  324DMC     C6 1944   0.649   2.972   2.561 -0.0595 -0.1268 -0.0458
  325DMC     O1 1945   1.117   3.360   0.027 -0.4477 -0.1702  0.5645
  325DMC     C2 1946   1.162   3.253   3.974 -0.2771  0.0579  0.0208
  325DMC     O3 1947   1.091   3.140   0.009 -0.4112  0.1866  0.4096
  325DMC     O4 1948   1.294   3.229   3.960 -0.3157  0.0059 -0.2758
  325DMC     C5 1949   0.953   3.170   0.016 -0.5550 -0.4261  0.2226
  325DMC     C6 1950   1.368   3.349   3.968  0.4226 -0.4161 -0.6951
  326DMC     O1 1951   3.747   2.098   2.091  0.7487 -0.4544 -0.0525
  326DMC     C2 1952   3.694   1.990   2.093  0.0356 -0.1039  0.1817
  326DMC     O3 1953   3.754   1.881   2.042 -0.5507 -0.2557 -0.1973
  326DMC     O4 1954   3.567   1.972   2.132 -0.1779  0.0330 -0.4384
  326DMC     C5 1955   3.854   1.917   1.949 -0.5603  0.2407 -0.0207
  326DMC     C6 1956   3.508   2.096   2.165  0.4295  0.1249  0.3191
  327DMC     O1 1957   3.190   0.986   3.361 -0.4875  0.1302 -0.3447
  327DMC     C2 1958   3.222   1.101   3.371  0.3802 -0.1146 -0.1976
  327DMC     O3 1959   3.161   1.196   3.444  0.2073  0.0457 -0.5526
  327DMC     O4 1960   3.309   1.166   3.293  0.3516  0.4598  0.2425
  327DMC     C5 1961   3.053   1.147   3.520  0.4043  0.2923 -0.1139
  327DMC     C6 1962   3.386   1.076   3.217  0.1278  0.3951  0.0923
  328DMC     O1 1963   2.453   2.366   0.140  0.0604  0.0350 -0.3333
  328DMC     C2 1964   2.390   2.384   0.039 -0.3071  0.0123 -0.1106
  328DMC     O3 1965   2.392   2.505   3.959 -0.0598  0.2102  0.3060
  328DMC     O4 1966   2.277   2.318   0.006 -0.4208  0.0435  0.2079
  328DMC     C5 1967   2.487   2.592   0.038  0.2949  0.4667 -0.6612
  328DMC     C6 1968   2.267   2.215   0.101 -0.2782 -0.1212  0.0462
  329DMC     O1 1969   1.809   2.993   2.011 -0.4798  0.0602  0.7009
  329DMC     C2 1970   1.823   2.874   1.998  0.0875  0.1491  0.4592
  329DMC     O3 1971   1.725   2.792   1.957  0.3601  0.1401 -0.1843
  329DMC     O4 1972   1.944   2.816   1.988 -0.0340 -0.0902  0.3839
  329DMC     C5 1973   1.606   2.860   1.923  0.2456 -0.0662 -0.1995
  329DMC     C6 1974   2.047   2.909   2.012 -0.0043  0.0865 -0.4150
  330DMC     O1 1975   1.747   3.177   1.304 -0.0100  0.4441 -0.0798
  330DMC     C2 1976   1.826   3.264   1.327  0.4924 -0.1348  0.4339
  330DMC     O3 1977   1.934   3.282   1.248 -0.0290 -0.0399 -0.2666
  330DMC     O4 1978   1.806   3.375   1.400  0.3665 -0.0779  0.3124
  330DMC     C5 1979   1.970   3.162   1.183  0.1989 -0.1694  0.0933
  330DMC     C6 1980   1.675   3.380   1.451  0.3574  0.6060  0.2290
  331DMC     O1 1981   2.873   1.572   3.271  0.1870 -0.2141  0.0344
  331DMC     C2 1982   2.911   1.664   3.339 -0.4367  0.0139  0.0784
  331DMC     O3 1983   2.836   1.713   3.439 -0.2750  0.1969  0.1093
  331DMC     O4 1984   2.995   1.760   3.298 -0.4464  0.0391  0.1170
  331DMC     C5 1985   2.714   1.643   3.455 -0.1991 -0.0126 -0.2297
  331DMC     C6 1986   3.023   1.760   3.160  0.3918 -0.5829  0.2774
  332DMC     O1 1987   0.137   3.811   1.258  0.2497  0.2663 -0.0779
  332DMC     C2 1988   0.091   3.892   1.333 -0.1879 -0.0440 -0.0016
  332DMC     O3 1989   0.028   0.021   1.283  0.4464  0.1873 -0.3202
  332DMC     O4 1990   0.111   3.899   1.466 -0.5810 -0.2332  0.0700
  332DMC     C5 1991   0.025   0.029   1.143  0.1908 -0.6704 -0.3725
  332DMC     C6 1992   0.213   3.814   1.514 -0.4338 -0.4027 -0.5372
  333DMC     O1 1993   0.526   1.210   2.193  0.0869  0.5146 -0.4482
  333DMC     C2 1994   0.472   1.200   2.087 -0.2704  0.0505 -0.2240
  333DMC     O3 1995   0.492   1.089   2.012 -0.1029  0.0437 -0.1705
  333DMC     O4 1996   0.350   1.252   2.067  0.1288  1.0365 -0.1360
  333DMC     C5 1997   0.606   1.010   2.038 -0.1874 -0.1010 -0.2403
  333DMC     C6 1998   0.289   1.272   2.193  0.3015 -0.3435  0.1815
  334DMC     O1 1999   0.926   1.964   0.751  0.1329 -0.1642 -0.0075
  334DMC     C2 2000   0.911   2.078   0.717 -0.0647 -0.3051 -0.4132
  334DMC     O3 2001   0.980   2.143   0.622 -0.1350  0.0790 -0.2071
  334DMC     O4 2002   0.805   2.147   0.764  0.3135 -0.1932  0.3003
  334DMC     C5 2003   1.061   2.054   0.547 -0.1858  0.4059 -0.6551
  334DMC     C6 2004   0.730   2.074   0.858 -0.3861  0.2922  0.1262
  335DMC     O1 2005   3.517   3.639   0.320  0.0825  0.6692 -0.5257
  335DMC     C2 2006   3.575   3.678   0.223  0.6364  0.3539 -0.3294
  335DMC     O3 2007   3.655   3.786   0.215  0.2693  0.5949 -0.7674
  335DMC     O4 2008   3.569   3.633   0.097  0.5954 -0.1201 -0.1587
  335DMC     C5 2009   3.687   3.855   0.334 -0.2758 -0.5649  0.0713
  335DMC     C6 2010   3.512   3.505   0.081  0.1275  0.0623  0.0320
  336DMC     O1 2011   1.029   1.650   2.364  0.4781  0.0111  0.1161
  336DMC     C2 2012   0.981   1.747   2.416 -0.0102 -0.0616 -0.1905
  336DMC     O3 2013   0.922   1.741   2.537  0.2429  0.3470 -0.0433
  336DMC     O4 2014   0.960   1.863   2.351 -0.1642  0.1581  0.2440
  336DMC     C5 2015   0.928   1.611   2.590  0.0297  0.5821  0.5590
  336DMC     C6 2016   1.011   1.865   2.219 -0.1014 -0.1743  0.2604
  337DMC     O1 2017   3.787   1.855   1.627  0.1597  0.5282 -0.4280
  337DMC     C2 2018   3.714   1.887   1.537 -0.4195 -0.1137 -0.1962
  337DMC     O3 2019   3.611   1.973   1.545 -0.0073  0.3705 -0.0464
  337DMC     O4 2020   3.693   1.803   1.434 -0.2366 -0.6056  0.1617
  337DMC     C5 2021   3.620   2.037   1.670  0.1911  0.3352 -0.0423
  337DMC     C6 2022   3.742   1.671   1.444  0.2026 -0.4766 -0.2349
  338DMC     O1 2023   1.805   3.521   1.900  0.1856 -0.7377  0.6962
  338DMC     C2 2024   1.769   3.468   1.799  0.7489  0.0686  0.0512
  338DMC     O3 2025   1.780   3.525   1.678 -0.0276  0.1429  0.0080
  338DMC     O4 2026   1.778   3.336   1.774 -0.4268  0.0050 -0.0976
  338DMC     C5 2027   1.810   3.662   1.663  0.0832  0.2591  1.2073
  338DMC     C6 2028   1.817   3.265   1.889 -0.2663  0.0130 -0.1467
  339DMC     O1 2029   0.427   3.456   1.596  0.2498  0.6630 -0.3517
  339DMC     C2 2030   0.419   3.389   1.496  0.3347 -0.0310  0.1036
  339DMC     O3 2031   0.504   3.401   1.393  0.1574  0.2077 -0.0139
  339DMC     O4 2032   0.361   3.268   1.489  0.1696  0.0511  0.0490
  339DMC     C5 2033   0.631   3.451   1.425  0.2369  0.2056 -0.3172
  339DMC     C6 2034   0.292   3.233   1.607  0.5663 -0.7546  0.0499
  340DMC     O1 2035   1.932   2.902   3.214 -0.3279  0.3637 -0.5126
  340DMC     C2 2036   2.016   2.868   3.135 -0.2455  0.2978 -0.3965
  340DMC     O3 2037   2.109   2.946   3.079 -0.2002  0.3797 -0.2079
  340DMC     O4 2038   2.015   2.754   3.064 -0.1881  0.2854 -0.3766
  340DMC     C5 2039   2.107   3.073   3.141 -0.1614  0.1483  0.2741
  340DMC     C6 2040   1.916   2.667   3.114  0.3315 -0.2658 -0.2822
  341DMC     O1 2041   2.900   1.068   1.379  0.0708 -0.2585  0.1003
  341DMC     C2 2042   2.897   1.003   1.279  0.3213  0.2521 -0.2473
  341DMC     O3 2043   2.791   1.006   1.196  0.0507 -0.0733  0.0815
  341DMC     O4 2044   2.996   0.918   1.245  0.2939  0.1816 -0.1530
  341DMC     C5 2045   2.681   1.078   1.247  0.0700  0.3255 -0.4397
  341DMC     C6 2046   3.111   0.932   1.324  0.4089  0.2560 -0.3334
  342DMC     O1 2047   1.062   3.544   0.598  0.2759  0.5856 -0.0455
  342DMC     C2 2048   1.095   3.429   0.598 -0.1670  0.4537  0.1092
  342DMC     O3 2049   1.143   3.377   0.713  0.6276 -0.0390 -0.4350
  342DMC     O4 2050   1.026   3.336   0.531 -0.0315  0.0585  0.5104
  342DMC     C5 2051   1.193   3.477   0.799 -0.2250  0.7926 -0.8891
  342DMC     C6 2052   0.942   3.377   0.425 -0.1567  0.1031  0.6275
  343DMC     O1 2053   3.927   3.791   1.973 -0.1007 -0.1040 -0.2587
  343DMC     C2 2054   3.923   3.675   2.001  0.0918  0.0180  0.2686
  343DMC     O3 2055   3.943   3.580   1.908 -0.3287 -0.0587  0.2557
  343DMC     O4 2056   3.881   3.624   2.118  0.0807 -0.5292  0.0273
  343DMC     C5 2057   0.006   3.629   1.783 -0.0552  0.2515  0.4683
  343DMC     C6 2058   3.818   3.710   2.210 -0.3380 -0.6803 -0.1145
  344DMC     O1 2059   3.839   0.809   3.633 -0.3396  0.0334  0.0671
  344DMC     C2 2060   3.865   0.731   3.721  0.2672  0.1647  0.0071
  344DMC     O3 2061   3.773   0.709   3.816  0.1795 -0.2764 -0.1784
  344DMC     O4 2062   0.008   0.687   3.754  0.0184 -0.2045  0.4482
  344DMC     C5 2063   3.643   0.750   3.780 -0.0280 -0.5894  0.2030
  344DMC     C6 2064   0.111   0.752   3.683 -0.4528  0.0043 -0.0522
  345DMC     O1 2065   3.061   2.488   0.269  0.0494  0.0879 -0.3549
  345DMC     C2 2066   3.053   2.598   0.221 -0.1012  0.4814  0.5451
  345DMC     O3 2067   3.152   2.684   0.193  0.0179  0.0266 -0.5029
  345DMC     O4 2068   2.933   2.652   0.193 -0.0447  0.4348  0.2031
  345DMC     C5 2069   3.279   2.624   0.206 -0.1188 -0.1697 -0.0369
  345DMC     C6 2070   2.834   2.552   0.200  0.0819  0.2776 -0.2260
  346DMC     O1 2071   3.036   3.920   2.318 -0.1786 -0.2584 -0.2822
  346DMC     C2 2072   3.024   0.034   2.392  0.0271 -0.4479 -0.0096
  346DMC     O3 2073   3.020   0.033   2.526 -0.0407 -0.1572 -0.0086
  346DMC     O4 2074   3.093   0.146   2.365  0.3753 -0.6565  0.0078
  346DMC     C5 2075   2.984   3.882   2.569 -0.2682  0.2165  0.9737
  346DMC     C6 2076   3.156   0.135   2.240  0.1760 -0.7308 -0.0848
  347DMC     O1 2077   3.412   3.062   1.172  0.0492  0.0820 -0.0085
  347DMC     C2 2078   3.470   3.144   1.236  0.5110 -0.2930  0.0594
  347DMC     O3 2079   3.417   3.227   1.328  0.1395 -0.6521  0.1711
  347DMC     O4 2080   3.568   3.215   1.178 -0.5524  0.5534 -0.7503
  347DMC     C5 2081   3.277   3.209   1.339 -0.0723  0.5082 -0.4258
  347DMC     C6 2082   3.618   3.160   1.058  0.1187  0.0746 -0.2584
  348DMC     O1 2083   2.864   0.636   1.477  0.3111  0.2918  0.0064
  348DMC     C2 2084   2.784   0.570   1.538  0.2918  0.1601 -0.1588
  348DMC     O3 2085   2.657   0.612   1.548  0.2393 -0.1004  0.2544
  348DMC     O4 2086   2.794   0.436   1.541  0.4027  0.1726  0.1019
  348DMC     C5 2087   2.640   0.739   1.490  0.1333 -0.4234 -0.4301
  348DMC     C6 2088   2.912   0.394   1.475 -0.0386  0.5517 -0.9640
  349DMC     O1 2089   3.839   2.569   0.532  0.1819  0.0656  0.0546
  349DMC     C2 2090   3.777   2.586   0.431 -0.0157  0.6510  0.2672
  349DMC     O3 2091   3.833   2.631   0.317 -0.3350 -0.0427 -0.1680
  349DMC     O4 2092   3.644   2.580   0.418  0.0599 -0.5119 -0.0654
  349DMC     C5 2093   3.961   2.678   0.351 -0.0312 -0.7955 -0.2472
  349DMC     C6 2094   3.585   2.546   0.541  0.0096 -0.1524  0.0120
  350DMC     O1 2095   2.034   1.692   0.430  0.0573  0.0141 -0.0219
  350DMC     C2 2096   2.113   1.716   0.517  0.1814 -0.4876  0.0017
  350DMC     O3 2097   2.246   1.700   0.502  0.1999 -0.4312  0.1001
  350DMC     O4 2098   2.084   1.713   0.649  0.1151 -0.3356 -0.0096
  350DMC     C5 2099   2.280   1.651   0.374 -0.3200  0.1267 -0.2546
  350DMC     C6 2100   1.944   1.719   0.664  0.1481  0.2098  0.0972
  351DMC     O1 2101   0.870   3.069   3.065  0.4723  0.5755 -0.0363
  351DMC     C2 2102   0.775   3.140   3.080  0.1148  0.2017 -0.4944
  351DMC     O3 2103   0.651   3.112   3.037 -0.0834  0.2436  0.0421
  351DMC     O4 2104   0.786   3.271   3.107 -0.2842  0.0013  0.6966
  351DMC     C5 2105   0.668   2.989   2.971  0.6026  0.4066 -0.0897
  351DMC     C6 2106   0.924   3.289   3.125 -0.1359 -0.2418 -0.1449
  352DMC     O1 2107   3.024   0.254   2.780  0.4467 -0.4385 -0.1145
  352DMC     C2 2108   2.913   0.211   2.792  0.1917  0.1940 -0.1654
  352DMC     O3 2109   2.850   0.176   2.906  0.1390  0.0870 -0.2270
  352DMC     O4 2110   2.823   0.225   2.694  0.2063  0.2371 -0.1730
  352DMC     C5 2111   2.949   0.150   3.003 -0.1862 -0.0706  0.0642
  352DMC     C6 2112   2.879   0.295   2.586  0.2231  0.3385 -0.0985
  353DMC     O1 2113   1.986   0.406   0.350  0.1835  0.6115 -0.6432
  353DMC     C2 2114   1.986   0.301   0.293 -0.8532  0.1280  0.2115
  353DMC     O3 2115   2.101   0.251   0.243 -0.2315  1.0818  0.6697
  353DMC     O4 2116   1.910   0.196   0.330 -0.7371  0.0065  0.1068
  353DMC     C5 2117   2.210   0.339   0.229  0.8314 -0.2978  0.0927
  353DMC     C6 2118   1.809   0.247   0.413 -0.4756  0.8665 -0.0915
  354DMC     O1 2119   1.796   1.590   0.997  0.0855 -0.5975 -0.2559
  354DMC     C2 2120   1.790   1.618   1.114 -0.2737 -0.1829 -0.3730
  354DMC     O3 2121   1.732   1.536   1.203  0.1750 -0.1223 -0.0220
  354DMC     O4 2122   1.796   1.743   1.164  0.6090 -0.3609 -0.0178
  354DMC     C5 2123   1.679   1.417   1.149  0.5758 -0.1541 -0.3447
  354DMC     C6 2124   1.782   1.845   1.068  0.8458 -0.4517 -0.1476
  355DMC     O1 2125   1.776   1.099   0.890 -0.3397 -0.1045  0.3266
  355DMC     C2 2126   1.798   0.984   0.916  0.3054 -0.0200  0.1730
  355DMC     O3 2127   1.877   0.951   1.020  0.2732  0.0292  0.2135
  355DMC     O4 2128   1.732   0.875   0.873  0.0008  0.3318 -0.2571
  355DMC     C5 2129   1.917   1.078   1.066  0.4686 -0.2567  0.8445
  355DMC     C6 2130   1.623   0.905   0.789 -0.4923 -0.4476  0.0933
  356DMC     O1 2131   1.783   0.663   2.007 -0.2598 -0.2050 -0.1112
  356DMC     C2 2132   1.745   0.597   2.100 -0.5037  0.0327 -0.0416
  356DMC     O3 2133   1.757   0.464   2.112 -0.0564  0.0372 -0.4109
  356DMC     O4 2134   1.689   0.648   2.212 -0.2799 -0.0713  0.1175
  356DMC     C5 2135   1.823   0.417   1.997  0.0304 -0.4773 -0.1549
  356DMC     C6 2136   1.703   0.789   2.216 -0.2556 -0.0748  0.1605
  357DMC     O1 2137   2.296   0.326   1.437 -0.7274 -0.3192  0.0766
  357DMC     C2 2138   2.315   0.257   1.534 -0.3091 -0.0632  0.1787
  357DMC     O3 2139   2.434   0.229   1.590 -0.2197 -0.1916 -0.0718
  357DMC     O4 2140   2.223   0.183   1.598 -0.6040  0.2547  0.1311
  357DMC     C5 2141   2.539   0.280   1.511  0.1213 -0.4943  0.1825
  357DMC     C6 2142   2.095   0.213   1.548 -0.6857  0.7613  0.6449
  358DMC     O1 2143   3.390   3.914   2.533 -0.1650  0.1465 -0.2572
  358DMC     C2 2144   3.463   0.013   2.586 -0.1329  0.0545 -0.1663
  358DMC     O3 2145   3.575   0.059   2.525  0.1994  0.0084  0.3993
  358DMC     O4 2146   3.427   0.116   2.666  0.1151  0.2098 -0.2514
  358DMC     C5 2147   3.600   3.955   2.414 -0.7879 -0.1292  0.2625
  358DMC     C6 2148   3.293   0.151   2.638 -0.1816 -0.5731  0.1502
  359DMC     O1 2149   2.803   0.641   2.712 -0.1946  0.3257  0.3811
  359DMC     C2 2150   2.872   0.649   2.614 -0.3730 -1.2357  0.1064
  359DMC     O3 2151   3.004   0.624   2.615 -0.1327 -0.0200  0.2231
  359DMC     O4 2152   2.833   0.641   2.485  0.2724 -0.2078 -0.1626
  359DMC     C5 2153   3.062   0.606   2.742  0.2886  0.1166  0.0523
  359DMC     C6 2154   2.698   0.674   2.461  0.1575 -0.5548  0.0023
  360DMC     O1 2155   2.011   2.031   3.927 -0.0270  0.1973 -0.0807
  360DMC     C2 2156   1.932   2.051   3.838 -0.1856  0.1364  0.0450
  360DMC     O3 2157   1.802   2.017   3.834 -0.2369  0.2537  0.6185
  360DMC     O4 2158   1.976   2.093   3.719 -0.1061  0.0776  0.0538
  360DMC     C5 2159   1.762   1.926   3.934 -0.3186 -0.2177  0.1598
  360DMC     C6 2160   2.116   2.110   3.722 -0.0085 -0.7148  0.2037
  361DMC     O1 2161   0.626   1.377   1.896 -0.4963 -0.0527 -1.0837
  361DMC     C2 2162   0.733   1.429   1.879 -0.5347  0.4085 -0.0002
  361DMC     O3 2163   0.840   1.358   1.841 -0.3646  0.1862  0.8719
  361DMC     O4 2164   0.776   1.537   1.947 -0.0315 -0.0177  0.3650
  361DMC     C5 2165   0.810   1.227   1.796  0.3039  0.1928  0.3875
  361DMC     C6 2166   0.689   1.582   2.048 -0.3580  0.1599  0.0093
  362DMC     O1 2167   2.894   3.533   2.504 -0.1184  0.5661  0.7002
  362DMC     C2 2168   2.781   3.565   2.527 -0.5005 -0.4445  0.2716
  362DMC     O3 2169   2.717   3.657   2.452 -0.1947 -0.2169  0.2904
  362DMC     O4 2170   2.728   3.575   2.650  0.1716  0.4230  0.4954
  362DMC     C5 2171   2.785   3.656   2.328  0.6269  0.2422  0.7274
  362DMC     C6 2172   2.821   3.553   2.753  0.3794 -0.2225  0.1718
  363DMC     O1 2173   0.563   3.729   2.851  0.0010  0.1343 -0.1296
  363DMC     C2 2174   0.553   3.779   2.743 -0.2214  0.3636 -0.0064
  363DMC     O3 2175   0.655   3.827   2.669 -0.1251 -0.5701 -0.4982
  363DMC     O4 2176   0.438   3.793   2.675 -0.2108 -0.4959 -0.2232
  363DMC     C5 2177   0.779   3.838   2.736 -0.4720 -0.5851  0.1564
  363DMC     C6 2178   0.332   3.730   2.743 -0.3779  0.0758  0.0513
  364DMC     O1 2179   1.498   2.957   3.959 -0.2682 -0.3153 -0.1370
  364DMC     C2 2180   1.582   3.023   3.903  0.0174 -0.5269  0.0366
  364DMC     O3 2181   1.641   3.122   3.971  0.0879 -0.3909 -0.2257
  364DMC     O4 2182   1.575   3.052   3.772 -0.1967  0.2711  0.2237
  364DMC     C5 2183   1.642   3.112   0.133  0.0548 -0.3147 -0.2196
  364DMC     C6 2184   1.471   2.981   3.708  0.3154 -0.1512 -0.1452
  365DMC     O1 2185   2.943   2.615   0.948 -0.1086 -0.0972  0.3938
  365DMC     C2 2186   2.902   2.566   1.050 -0.2545  0.1182  0.4413
  365DMC     O3 2187   2.900   2.434   1.075  0.3505  0.0589  0.2129
  365DMC     O4 2188   2.896   2.638   1.163  0.2490  0.1368  0.4578
  365DMC     C5 2189   2.926   2.355   0.961  0.5360  0.7015 -0.1982
  365DMC     C6 2190   2.914   2.777   1.147  0.1311  0.1850  0.7337
  366DMC     O1 2191   3.956   0.923   1.279 -0.1153  0.0032  0.1196
  366DMC     C2 2192   0.037   0.903   1.177 -0.4350 -0.0843 -0.0562
  366DMC     O3 2193   0.156   0.841   1.172 -0.5747 -0.3291 -0.4120
  366DMC     O4 2194   0.047   1.002   1.086 -0.2061  0.2359  0.3125
  366DMC     C5 2195   0.227   0.843   1.294 -0.2691 -0.1011 -0.5902
  366DMC     C6 2196   3.925   1.097   1.107 -0.1907  0.2852  0.1648
  367DMC     O1 2197   2.142   3.807   2.165  0.6264  0.1406 -0.1458
  367DMC     C2 2198   2.117   3.839   2.052 -0.3119  0.0886  0.0389
  367DMC     O3 2199   2.082   3.757   1.951 -0.3473  0.0237  0.1033
  367DMC     O4 2200   2.110   3.966   2.010 -0.1165  0.0237 -0.1952
  367DMC     C5 2201   2.095   3.623   1.993 -0.4221 -0.0296 -0.0402
  367DMC     C6 2202   2.117   0.064   2.128 -0.5096  0.0345 -0.1780
  368DMC     O1 2203   0.445   1.700   3.631 -0.1978 -0.5331 -0.6388
  368DMC     C2 2204   0.336   1.727   3.673  0.2500  0.5335 -0.1412
  368DMC     O3 2205   0.227   1.752   3.598 -0.1644  0.0980  0.3077
  368DMC     O4 2206   0.308   1.773   3.796 -0.4409 -0.3496  0.0421
  368DMC     C5 2207   0.246   1.760   3.458  0.3822 -0.2305  0.3581
  368DMC     C6 2208   0.416   1.783   3.887 -0.4330 -0.8819  0.0942
  369DMC     O1 2209   2.424   3.558   0.426  0.5273 -0.0943  0.2583
  369DMC     C2 2210   2.402   3.462   0.494  0.2683  0.1098  0.4688
  369DMC     O3 2211   2.404   3.337   0.444 -0.0972  0.3278 -0.0973
  369DMC     O4 2212   2.301   3.466   0.583 -0.3639 -0.0436 -0.2374
  369DMC     C5 2213   2.434   3.331   0.307 -0.1423  0.2063 -0.1018
  369DMC     C6 2214   2.274   3.600   0.618  0.0490 -0.0116 -0.0365
  370DMC     O1 2215   1.753   2.330   0.720 -0.5055  0.5446 -0.3053
  370DMC     C2 2216   1.719   2.229   0.665 -0.6259  0.3262  0.1677
  370DMC     O3 2217   1.617   2.213   0.578  0.0116  0.1758 -0.5627
  370DMC     O4 2218   1.767   2.109   0.701 -0.4045  0.3851  0.0693
  370DMC     C5 2219   1.587   2.316   0.486 -0.2839  0.1758 -0.4686
  370DMC     C6 2220   1.836   2.131   0.823 -0.0791 -0.6083  0.0733
  371DMC     O1 2221   2.227   2.297   2.768 -0.3489  0.7386 -0.5274
  371DMC     C2 2222   2.119   2.314   2.817 -0.1463 -0.3599  0.3108
  371DMC     O3 2223   2.042   2.421   2.795  0.0758 -0.3107 -0.2429
  371DMC     O4 2224   2.032   2.220   2.859 -0.1489 -0.4885  0.0180
  371DMC     C5 2225   2.119   2.522   2.733  0.5161 -0.2662  0.3617
  371DMC     C6 2226   2.084   2.090   2.839 -0.0215 -0.4233 -0.0782
  372DMC     O1 2227   3.075   3.259   3.200 -0.3611 -0.1847  0.0826
  372DMC     C2 2228   2.991   3.337   3.164  0.2485  0.8010  0.7094
  372DMC     O3 2229   2.878   3.351   3.235  0.1140  0.1984  0.6267
  372DMC     O4 2230   3.004   3.431   3.069 -0.0800 -0.0547 -0.2118
  372DMC     C5 2231   2.875   3.277   3.355  0.4848 -0.0246  0.5009
  372DMC     C6 2232   3.125   3.394   3.007 -0.0852  0.0742 -0.2993
  373DMC     O1 2233   2.246   1.333   1.386  0.6405 -0.2909 -0.4411
  373DMC     C2 2234   2.187   1.408   1.314  0.0973 -0.0161  0.2864
  373DMC     O3 2235   2.078   1.478   1.352 -0.0928 -0.2532  0.1810
  373DMC     O4 2236   2.215   1.429   1.185  0.0892  0.4846  0.3641
  373DMC     C5 2237   2.050   1.456   1.489  0.2575 -0.1619  0.2695
  373DMC     C6 2238   2.330   1.359   1.145 -0.2227 -0.2265  0.7058
  374DMC     O1 2239   3.161   2.038   2.293 -0.3211  0.0261 -0.4404
  374DMC     C2 2240   3.115   2.134   2.349  0.5171  0.3938 -0.3687
  374DMC     O3 2241   3.164   2.183   2.464  0.0250  0.2773 -0.1046
  374DMC     O4 2242   3.007   2.198   2.300  0.3587  0.2502 -0.2114
  374DMC     C5 2243   3.267   2.096   2.509 -0.0228  0.5937  0.6337
  374DMC     C6 2244   2.951   2.117   2.199 -0.4080 -0.1389  0.5148
  375DMC     O1 2245   3.935   2.778   2.442  0.2845 -0.5891 -0.2305
  375DMC     C2 2246   3.978   2.751   2.550 -0.0826 -0.1280  0.0343
  375DMC     O3 2247   0.031   2.847   2.639 -0.4296 -0.0967  0.1293
  375DMC     O4 2248   0.051   2.631   2.578  0.0893 -0.0359  0.1101
  375DMC     C5 2249   0.085   2.790   2.756 -0.0539 -0.5037 -0.2379
  375DMC     C6 2250   0.038   2.543   2.468 -0.4944  0.1727  0.0085
  376DMC     O1 2251   1.979   2.463   0.116 -0.5208 -0.2112  0.0468
  376DMC     C2 2252   1.925   2.427   0.217 -0.3585  0.2723  0.3075
  376DMC     O3 2253   1.993   2.413   0.332 -0.0678  0.0983  0.1158
  376DMC     O4 2254   1.816   2.349   0.230 -0.0223 -0.3034 -0.2525
  376DMC     C5 2255   2.120   2.474   0.336 -0.1445  0.2818 -0.2044
  376DMC     C6 2256   1.745   2.324   0.110 -0.1471  0.4276 -0.3379
  377DMC     O1 2257   1.962   1.617   2.164 -0.0223  0.3779  0.2954
  377DMC     C2 2258   1.846   1.645   2.154 -0.1650 -0.4220 -0.3347
  377DMC     O3 2259   1.781   1.656   2.036 -0.2429  0.5437 -0.2104
  377DMC     O4 2260   1.763   1.620   2.257  0.2674  0.7203  0.3012
  377DMC     C5 2261   1.870   1.646   1.928  0.2236 -0.4683  0.2491
  377DMC     C6 2262   1.826   1.557   2.366  0.5543  0.0331 -0.2518
  378DMC     O1 2263   1.426   1.457   0.544 -0.0004  0.1835 -0.3857
  378DMC     C2 2264   1.426   1.421   0.659  0.3216 -0.3522 -0.5500
  378DMC     O3 2265   1.316   1.440   0.733  0.2800  0.5111 -0.8236
  378DMC     O4 2266   1.529   1.371   0.729 -0.5205 -0.3671  0.7056
  378DMC     C5 2267   1.200   1.473   0.660 -0.3843  0.0986  0.0295
  378DMC     C6 2268   1.646   1.365   0.651 -0.5278  0.4881  0.6242
  379DMC     O1 2269   1.455   1.973   0.635  0.3493 -0.6841  0.2598
  379DMC     C2 2270   1.467   1.965   0.754 -0.1858  0.1990  0.3789
  379DMC     O3 2271   1.457   2.062   0.846 -0.3519  0.1198  0.4441
  379DMC     O4 2272   1.538   1.864   0.806 -0.0057 -0.2401 -0.6859
  379DMC     C5 2273   1.347   2.148   0.831 -0.1630  0.3828  0.5544
  379DMC     C6 2274   1.596   1.781   0.708 -0.0675 -0.2132 -0.7446
  380DMC     O1 2275   2.436   0.532   2.560  0.2755 -0.8914 -0.0541
  380DMC     C2 2276   2.389   0.527   2.670  0.1010 -0.3243 -0.1013
  380DMC     O3 2277   2.445   0.474   2.780 -0.1488  0.0563  0.2117
  380DMC     O4 2278   2.318   0.628   2.724  0.3363 -0.3578  0.2744
  380DMC     C5 2279   2.563   0.399   2.764  0.4551  1.0357 -0.0200
  380DMC     C6 2280   2.284   0.717   2.620  0.0779 -1.0610 -0.2602
  381DMC     O1 2281   0.619   1.842   1.496 -0.0164 -0.6666 -0.5866
  381DMC     C2 2282   0.657   1.814   1.607 -0.4969  0.0727 -0.2337
  381DMC     O3 2283   0.674   1.691   1.657 -0.1806  0.2512  0.1037
  381DMC     O4 2284   0.666   1.905   1.706 -0.7812  0.0031 -0.1411
  381DMC     C5 2285   0.675   1.602   1.548  0.6394  0.8594 -0.3971
  381DMC     C6 2286   0.615   2.026   1.656  0.0763  0.4816  0.1186
  382DMC     O1 2287   0.234   1.237   0.604 -0.4173 -0.0780 -0.0324
  382DMC     C2 2288   0.329   1.256   0.675 -0.3445 -0.1214 -0.1183
  382DMC     O3 2289   0.335   1.209   0.801  0.1063  0.3062  0.0200
  382DMC     O4 2290   0.433   1.333   0.638 -0.5410  0.1856 -0.0382
  382DMC     C5 2291   0.233   1.122   0.844  0.5540 -0.1982  0.0816
  382DMC     C6 2292   0.421   1.378   0.505 -0.0219 -0.0348 -0.1622
  383DMC     O1 2293   0.974   1.940   1.652  0.1387 -0.2024  0.1748
  383DMC     C2 2294   0.966   2.005   1.752 -0.3217 -0.0816  0.0627
  383DMC     O3 2295   0.920   1.960   1.870 -0.3320 -0.0727  0.0622
  383DMC     O4 2296   0.986   2.138   1.759 -0.0339 -0.1383  0.3487
  383DMC     C5 2297   0.929   1.819   1.872 -0.1477 -0.0568  0.4102
  383DMC     C6 2298   1.016   2.184   1.629 -0.2895 -0.5071  0.1552
  384DMC     O1 2299   1.570   0.124   1.810 -0.3391 -0.2172 -0.1727
  384DMC     C2 2300   1.602   0.031   1.741  0.1946  0.0732 -0.3243
  384DMC     O3 2301   1.718   3.942   1.746 -0.1646 -0.5485 -0.3198
  384DMC     O4 2302   1.514   3.941   1.665  0.2294 -0.1044 -0.2055
  384DMC     C5 2303   1.806   0.041   1.823 -0.6505 -0.6514  0.3544
  384DMC     C6 2304   1.391   0.030   1.656  0.5127  0.5024  0.3960
  385DMC     O1 2305   3.004   3.468   1.725 -0.4469 -0.2164  0.4017
  385DMC     C2 2306   3.035   3.397   1.635  0.4191  0.2652  0.3137
  385DMC     O3 2307   3.050   3.264   1.651 -0.3466  0.1055 -0.2232
  385DMC     O4 2308   2.996   3.414   1.507  0.7663  0.7047  0.2645
  385DMC     C5 2309   3.038   3.226   1.786 -0.2176 -1.4074 -0.6174
  385DMC     C6 2310   2.931   3.538   1.484 -0.0817  0.0627 -0.9185
  386DMC     O1 2311   3.435   0.169   2.975  0.0606  0.4688 -0.1719
  386DMC     C2 2312   3.488   0.123   3.072 -0.0572  0.1953 -0.2346
  386DMC     O3 2313   3.424   0.066   3.176  0.1624  0.2508 -0.0673
  386DMC     O4 2314   3.618   0.090   3.080 -0.0561  0.2404 -0.0578
  386DMC     C5 2315   3.289   0.097   3.151  0.1518  0.8767  0.7332
  386DMC     C6 2316   3.678   0.094   2.953  0.3113 -0.5966  0.0763
  387DMC     O1 2317   0.627   0.347   0.473 -0.2877 -0.4351 -0.1461
  387DMC     C2 2318   0.570   0.452   0.460  0.5115  0.0118 -0.1361
  387DMC     O3 2319   0.545   0.545   0.554  0.3543 -0.1938  0.0285
  387DMC     O4 2320   0.570   0.510   0.339  0.3959 -0.1310 -0.2044
  387DMC     C5 2321   0.635   0.527   0.661 -0.2834  0.8530  0.7599
  387DMC     C6 2322   0.571   0.426   0.226  0.0080 -0.1664 -0.1837
  388DMC     O1 2323   3.787   0.768   1.754 -0.3563 -0.2568 -0.2687
  388DMC     C2 2324   3.704   0.775   1.840 -0.0336  0.0175  0.0231
  388DMC     O3 2325   3.642   0.892   1.864  0.0548  0.0058  0.3072
  388DMC     O4 2326   3.631   0.668   1.876  0.2089 -0.0391  0.3567
  388DMC     C5 2327   3.674   0.998   1.778  0.6106 -0.3795  0.0321
  388DMC     C6 2328   3.672   0.540   1.834  0.1659  0.1746 -0.3577
  389DMC     O1 2329   0.563   3.406   3.212  0.6140  0.2327 -0.2360
  389DMC     C2 2330   0.468   3.363   3.152  0.5394 -0.3242  0.2748
  389DMC     O3 2331   0.448   3.387   3.021  0.5944  0.1081  0.3461
  389DMC     O4 2332   0.357   3.321   3.214  0.0196  0.2588 -0.2537
  389DMC     C5 2333   0.566   3.440   2.966  0.5146  0.1096  0.1766
  389DMC     C6 2334   0.370   3.306   3.354  0.4361 -0.5970 -0.3779
  390DMC     O1 2335   2.946   3.701   0.997  0.1873  0.2231  0.2168
  390DMC     C2 2336   3.042   3.662   0.938 -0.3198 -0.3117 -0.2639
  390DMC     O3 2337   3.056   3.691   0.807  0.3453  0.0303 -0.1242
  390DMC     O4 2338   3.130   3.566   0.973 -0.5049 -0.2604  0.3566
  390DMC     C5 2339   2.965   3.792   0.769 -0.0887 -0.3567 -0.1250
  390DMC     C6 2340   3.131   3.555   1.113 -0.0849  0.3129  0.4056
  391DMC     O1 2341   0.750   2.899   3.319  0.3295  0.4074  0.2182
  391DMC     C2 2342   0.829   2.830   3.377  0.5922  0.4817 -0.0457
  391DMC     O3 2343   0.902   2.734   3.320  0.1097  0.1512 -0.1138
  391DMC     O4 2344   0.829   2.806   3.509  0.2820 -0.0588 -0.1416
  391DMC     C5 2345   0.876   2.720   3.182 -0.2800  0.8927 -0.1192
  391DMC     C6 2346   0.721   2.872   3.570  0.4636 -0.1313  0.2659
  392DMC     O1 2347   2.412   1.594   1.443  0.2350  0.3531 -0.0735
  392DMC     C2 2348   2.511   1.615   1.506  0.4806 -0.2295 -0.2543
  392DMC     O3 2349   2.590   1.721   1.481  0.0180  0.1809  0.0106
  392DMC     O4 2350   2.554   1.542   1.611  0.0376  0.2006  0.2349
  392DMC     C5 2351   2.567   1.769   1.350  0.6908 -0.0022 -0.1745
  392DMC     C6 2352   2.463   1.435   1.618  0.1413  0.1315  0.5637
  393DMC     O1 2353   3.811   2.166   3.616  0.4662  0.0337  0.2108
  393DMC     C2 2354   3.808   2.250   3.702 -0.3049  0.3196 -0.0864
  393DMC     O3 2355   3.716   2.273   3.797 -0.1132  0.3615  0.0895
  393DMC     O4 2356   3.886   2.359   3.700  0.1328  0.0159  0.2138
  393DMC     C5 2357   3.632   2.161   3.817  0.3804 -0.2508 -1.1196
  393DMC     C6 2358   3.978   2.371   3.594 -0.2310  0.2337 -0.0793
  394DMC     O1 2359   3.639   1.066   0.603 -0.2318 -0.4606  0.9484
  394DMC     C2 2360   3.717   0.976   0.586  0.1172 -0.0532  0.3577
  394DMC     O3 2361   3.705   0.905   0.472 -0.3851  0.0962  0.3140
  394DMC     O4 2362   3.771   0.892   0.676  0.2994  0.1268  0.4158
  394DMC     C5 2363   3.611   0.966   0.386  0.2537 -0.3871 -0.7410
  394DMC     C6 2364   3.773   0.937   0.810  0.3172 -0.2521  0.5435
  395DMC     O1 2365   3.514   2.363   1.495  0.0717  0.5517  0.1063
  395DMC     C2 2366   3.588   2.311   1.416 -0.4440 -0.0144 -0.0079
  395DMC     O3 2367   3.719   2.335   1.404 -0.3190 -0.5451  0.2589
  395DMC     O4 2368   3.543   2.247   1.306 -0.0646  0.2806 -0.3396
  395DMC     C5 2369   3.773   2.412   1.510 -0.2530 -0.0916 -0.1002
  395DMC     C6 2370   3.439   2.154   1.329 -0.1521  0.2591 -0.8101
  396DMC     O1 2371   3.671   1.189   3.119 -0.2948  0.4193  0.4448
  396DMC     C2 2372   3.646   1.305   3.100 -0.1460  0.3265 -0.3569
  396DMC     O3 2373   3.604   1.349   2.980  0.1233 -0.1242 -0.6218
  396DMC     O4 2374   3.701   1.402   3.175  0.1224  0.1467 -0.3182
  396DMC     C5 2375   3.575   1.243   2.891  0.1078 -0.5335 -0.1367
  396DMC     C6 2376   3.773   1.337   3.277 -0.3246 -0.0031 -0.0949
  397DMC     O1 2377   1.972   1.004   2.072  0.1679 -0.2127 -0.5399
  397DMC     C2 2378   1.941   1.118   2.088 -0.7751 -0.5431  0.1283
  397DMC     O3 2379   1.883   1.193   1.993  0.0749 -0.2336 -0.1568
  397DMC     O4 2380   1.929   1.181   2.207 -0.2499  0.0486 -0.1246
  397DMC     C5 2381   1.857   1.118   1.877  0.0338  0.0137 -0.3100
  397DMC     C6 2382   1.915   1.084   2.308 -0.4690  0.2799  0.0664
  398DMC     O1 2383   1.033   3.089   3.515  0.3775  0.0393 -0.1692
  398DMC     C2 2384   1.086   3.119   3.619  0.6405 -0.2419 -0.2204
  398DMC     O3 2385   1.122   3.246   3.643  0.4801 -0.2357 -0.0101
  398DMC     O4 2386   1.135   3.026   3.702  0.7033 -0.0870 -0.0831
  398DMC     C5 2387   1.080   3.324   3.534  0.5166 -0.3078 -0.0759
  398DMC     C6 2388   1.092   2.893   3.681  0.2183  0.1391 -0.5092
  399DMC     O1 2389   0.952   1.946   3.970 -0.1333 -0.5013 -0.1063
  399DMC     C2 2390   1.068   1.973   3.959 -0.3075  0.1948 -0.2699
  399DMC     O3 2391   1.115   2.085   3.902  0.2700  0.2168  0.2354
  399DMC     O4 2392   1.164   1.894   0.033 -0.3404 -0.1693 -0.7579
  399DMC     C5 2393   1.000   2.140   3.841 -0.1982 -0.5351  0.4335
  399DMC     C6 2394   1.099   1.776   0.073 -0.0900 -0.1284 -0.2215
  400DMC     O1 2395   1.674   2.544   1.692  0.2506 -0.0550 -0.3847
  400DMC     C2 2396   1.725   2.508   1.794  0.0527 -0.8679 -0.5662
  400DMC     O3 2397   1.857   2.501   1.821 -0.0409 -0.4366  0.0252
  400DMC     O4 2398   1.654   2.433   1.880  0.3476 -0.1188  0.3356
  400DMC     C5 2399   1.934   2.559   1.718  0.0175 -0.1087  0.2542
  400DMC     C6 2400   1.520   2.406   1.847  0.3171  0.4910 -0.0529
  401DMC     O1 2401   0.796   2.345   0.180  0.4671  0.5849 -0.5655
  401DMC     C2 2402   0.882   2.334   0.262 -0.3790 -0.3266  0.2343
  401DMC     O3 2403   0.916   2.214   0.310  0.1819 -0.3684 -0.2553
  401DMC     O4 2404   0.884   2.425   0.361 -0.6855 -0.3385  0.2523
  401DMC     C5 2405   0.836   2.120   0.243  0.0493  0.0242 -0.6473
  401DMC     C6 2406   0.812   2.542   0.327  0.7697  0.4266 -0.2981
  402DMC     O1 2407   3.056   1.489   1.043  0.1886  0.2366  0.2026
  402DMC     C2 2408   3.171   1.483   1.008  0.0688 -0.3552 -0.1030
  402DMC     O3 2409   3.219   1.544   0.898 -0.1005 -0.4227 -0.2168
  402DMC     O4 2410   3.264   1.441   1.094 -0.2267 -0.2286  0.2805
  402DMC     C5 2411   3.110   1.581   0.817  0.1783 -0.0930 -0.4438
  402DMC     C6 2412   3.199   1.409   1.215 -0.5264  0.3558  0.2747
  403DMC     O1 2413   1.634   3.574   0.437  0.0885  0.1190  0.2104
  403DMC     C2 2414   1.520   3.592   0.469 -0.1824 -0.6053 -0.3368
  403DMC     O3 2415   1.446   3.505   0.540 -0.6177 -0.3582 -0.4836
  403DMC     O4 2416   1.443   3.687   0.412 -0.0928 -0.2288  0.1631
  403DMC     C5 2417   1.514   3.383   0.556  0.3242  0.2323  0.0915
  403DMC     C6 2418   1.516   3.791   0.352 -0.1539 -0.3408 -0.1059
  404DMC     O1 2419   0.573   0.746   1.742  0.3542  0.2050 -0.7167
  404DMC     C2 2420   0.478   0.766   1.671 -0.1936  0.3739  0.0488
  404DMC     O3 2421   0.350   0.759   1.709 -0.0999  0.5189  0.3960
  404DMC     O4 2422   0.485   0.858   1.574 -0.0364  0.1567 -0.1467
  404DMC     C5 2423   0.338   0.721   1.845  0.4220  0.4178  0.4151
  404DMC     C6 2424   0.616   0.910   1.579 -0.0881  0.2093  0.8599
  405DMC     O1 2425   2.100   3.953   0.767  0.2839  0.3335  0.2771
  405DMC     C2 2426   2.063   0.051   0.683 -0.2596  0.1099  0.3042
  405DMC     O3 2427   1.976   0.019   0.586  0.2520 -0.0504 -0.1087
  405DMC     O4 2428   2.113   0.172   0.652 -0.2190 -0.0182 -0.1387
  405DMC     C5 2429   1.928   3.868   0.615 -0.2243  0.0762 -0.3126
  405DMC     C6 2430   2.236   0.203   0.711  0.0067 -0.0793 -0.5746
  406DMC     O1 2431   2.372   3.055   3.389 -0.1981  0.3728  0.0532
  406DMC     C2 2432   2.490   3.057   3.410 -0.1531 -0.2444 -0.1486
  406DMC     O3 2433   2.567   3.165   3.424 -0.3936 -0.1413  0.3921
  406DMC     O4 2434   2.565   2.945   3.417 -0.0448 -0.1592  0.0344
  406DMC     C5 2435   2.492   3.284   3.416 -0.0502  0.0764  0.3696
  406DMC     C6 2436   2.472   2.845   3.383  0.0324 -0.2337  0.0442
  407DMC     O1 2437   0.029   2.444   0.867 -0.1159  0.4535  0.5143
  407DMC     C2 2438   3.947   2.365   0.802  0.5873 -0.0062  0.3974
  407DMC     O3 2439   3.830   2.312   0.842  0.4567  0.0031  0.0272
  407DMC     O4 2440   0.018   2.304   0.694  0.2925 -0.0851  0.3021
  407DMC     C5 2441   3.794   2.349   0.973 -0.4183 -0.0556 -0.1916
  407DMC     C6 2442   0.146   2.354   0.661 -0.0614  0.5126 -0.1737
  408DMC     O1 2443   2.005   2.732   0.871 -0.2054 -0.0026  0.3374
  408DMC     C2 2444   2.082   2.801   0.932  0.3582 -0.6248  0.3424
  408DMC     O3 2445   2.075   2.846   1.058  0.4807  0.2053  0.0563
  408DMC     O4 2446   2.206   2.836   0.894  0.0985  0.0484  0.0986
  408DMC     C5 2447   1.981   2.788   1.145  0.1860  0.2739 -0.2176
  408DMC     C6 2448   2.243   2.773   0.773 -0.3454 -0.3856  0.1839
  409DMC     O1 2449   3.528   3.497   2.115  0.0826 -0.3099 -0.3969
  409DMC     C2 2450   3.585   3.400   2.071  0.7724 -0.0707 -0.0404
  409DMC     O3 2451   3.581   3.280   2.131  0.2582  0.1639  0.4089
  409DMC     O4 2452   3.627   3.384   1.945 -0.5618 -0.5038 -0.4461
  409DMC     C5 2453   3.506   3.283   2.250 -0.4329 -0.2215 -0.0053
  409DMC     C6 2454   3.593   3.494   1.863 -0.2747 -0.2976 -0.2886
  410DMC     O1 2455   0.607   3.854   3.336  0.0343 -0.0527  0.1163
  410DMC     C2 2456   0.633   3.749   3.386  0.5394  0.0240  0.0213
  410DMC     O3 2457   0.751   3.686   3.371  0.5785  0.0573  0.1852
  410DMC     O4 2458   0.565   3.702   3.492  0.3237  0.4801  0.0866
  410DMC     C5 2459   0.808   3.753   3.261 -0.0754  0.0514 -0.1657
  410DMC     C6 2460   0.437   3.759   3.504  0.3387  0.4588  0.3423
  411DMC     O1 2461   2.999   2.860   2.690 -0.0064  0.2257 -0.2302
  411DMC     C2 2462   2.925   2.847   2.596 -0.2360  0.3693 -0.0692
  411DMC     O3 2463   2.955   2.775   2.487 -0.0556 -0.6615  0.6451
  411DMC     O4 2464   2.795   2.883   2.590 -0.3248  0.1791  0.5869
  411DMC     C5 2465   3.083   2.716   2.494  0.2389 -0.1273 -0.1063
  411DMC     C6 2466   2.746   2.970   2.689 -0.4354  0.6532  0.1231
  412DMC     O1 2467   3.294   1.502   0.277 -0.4048 -0.2505 -0.1013
  412DMC     C2 2468   3.176   1.504   0.256 -0.2977 -0.1596 -0.7109
  412DMC     O3 2469   3.086   1.589   0.310  0.0699 -0.0986 -0.1843
  412DMC     O4 2470   3.104   1.404   0.203 -0.5819 -0.3277 -0.0236
  412DMC     C5 2471   3.146   1.691   0.387 -0.3093 -0.3538  0.4573
  412DMC     C6 2472   3.177   1.304   0.135  0.1659  0.2178 -0.0384
  413DMC     O1 2473   0.321   2.870   3.071 -0.0382 -0.1906 -0.1407
  413DMC     C2 2474   0.321   2.909   3.185  0.5612  0.3368 -0.3172
  413DMC     O3 2475   0.223   2.986   3.236  0.0471 -0.0621 -0.6929
  413DMC     O4 2476   0.384   2.846   3.285  0.2608 -0.1268 -0.4175
  413DMC     C5 2477   0.129   3.031   3.141  0.2678  0.2012 -0.7860
  413DMC     C6 2478   0.481   2.755   3.240  0.7674  0.2177 -0.0390
  414DMC     O1 2479   0.651   2.786   1.285 -0.3820  0.0797  0.1630
  414DMC     C2 2480   0.702   2.891   1.258  0.6226 -0.4219  0.0497
  414DMC     O3 2481   0.725   2.927   1.131 -0.1233  0.0222  0.0330
  414DMC     O4 2482   0.685   2.996   1.340 -0.6098 -0.0366 -0.6722
  414DMC     C5 2483   0.703   2.812   1.053  0.6272 -0.5792  0.6799
  414DMC     C6 2484   0.622   2.959   1.461  0.6342  0.8129  0.2644
  415DMC     O1 2485   1.822   3.788   0.923  0.5784 -0.1287 -0.0416
  415DMC     C2 2486   1.861   3.807   1.035 -0.2873  0.1061  0.2255
  415DMC     O3 2487   1.862   3.713   1.131  0.6244 -0.6504 -0.5045
  415DMC     O4 2488   1.895   3.926   1.087  0.1849  0.0367  0.0738
  415DMC     C5 2489   1.822   3.586   1.085 -0.1172 -0.5591 -0.1341
  415DMC     C6 2490   1.886   0.047   0.987  0.1741  0.1173  0.1554
  416DMC     O1 2491   3.319   2.204   3.376 -1.0803 -0.9626  0.1738
  416DMC     C2 2492   3.345   2.104   3.314  0.4219 -0.2474 -0.3896
  416DMC     O3 2493   3.412   1.997   3.359  0.0364 -0.1806  0.3642
  416DMC     O4 2494   3.270   2.056   3.214  0.5721  0.6811 -0.9655
  416DMC     C5 2495   3.461   2.019   3.489 -0.0385  0.0624  0.3521
  416DMC     C6 2496   3.147   2.121   3.191  0.3791  0.3593 -0.8620
  417DMC     O1 2497   2.725   0.309   2.048 -0.2298  0.1809  0.0411
  417DMC     C2 2498   2.832   0.337   2.001  0.0644 -0.3260  0.4042
  417DMC     O3 2499   2.877   0.317   1.877 -0.6255 -0.2008  0.1277
  417DMC     O4 2500   2.913   0.421   2.068 -0.5186  0.4067  0.2131
  417DMC     C5 2501   2.779   0.257   1.794  0.2448 -0.7614 -0.5237
  417DMC     C6 2502   2.866   0.430   2.201 -0.3299  0.4028  0.2811
  418DMC     O1 2503   1.571   2.759   0.961 -0.1052 -0.5226  0.1819
  418DMC     C2 2504   1.530   2.702   1.058  0.0558  0.1101  0.6299
  418DMC     O3 2505   1.460   2.756   1.159 -0.0547 -0.1201  0.6776
  418DMC     O4 2506   1.501   2.570   1.050  0.4386  0.0458  0.2758
  418DMC     C5 2507   1.436   2.889   1.119  0.4860 -0.1487  0.2514
  418DMC     C6 2508   1.534   2.516   0.924  0.2173 -0.2557  0.3484
  419DMC     O1 2509   0.839   3.960   0.933 -0.1254 -0.0471 -0.0625
  419DMC     C2 2510   0.811   3.948   0.817 -0.9442  0.4263  0.0780
  419DMC     O3 2511   0.810   3.825   0.762  0.1295  0.4996 -0.1446
  419DMC     O4 2512   0.798   0.064   0.722  0.3028  0.2601 -0.2792
  419DMC     C5 2513   0.828   3.716   0.850 -0.4022  0.7894  0.3374
  419DMC     C6 2514   0.836   0.191   0.770  0.0956  0.3699 -0.4047
  420DMC     O1 2515   2.039   2.096   0.545  0.3889 -0.0329 -0.1744
  420DMC     C2 2516   2.067   2.127   0.433  0.0251  0.6258 -0.0898
  420DMC     O3 2517   1.998   2.080   0.328  0.4211  0.4439 -0.2699
  420DMC     O4 2518   2.189   2.153   0.384  0.0337  0.0899 -0.3530
  420DMC     C5 2519   1.880   2.020   0.379  0.5100  0.4779 -0.0259
  420DMC     C6 2520   2.291   2.124   0.477  0.1492 -0.6217 -0.6914
  421DMC     O1 2521   2.220   2.289   2.257 -0.1471  0.1826 -0.1220
  421DMC     C2 2522   2.217   2.332   2.369  0.0034  0.1663 -0.1119
  421DMC     O3 2523   2.329   2.384   2.421  0.1860 -0.4622  0.1349
  421DMC     O4 2524   2.116   2.318   2.457 -0.1003 -0.4246 -0.3171
  421DMC     C5 2525   2.437   2.386   2.329  0.1862  0.0053  0.1422
  421DMC     C6 2526   2.002   2.273   2.388 -0.6796  0.3628  0.1041
  422DMC     O1 2527   1.822   3.698   3.473 -0.3026  0.3758  0.2060
  422DMC     C2 2528   1.779   3.791   3.534  0.2499  0.5978  0.2653
  422DMC     O3 2529   1.817   3.827   3.658 -0.2196  0.2262  0.5203
  422DMC     O4 2530   1.709   3.894   3.483 -0.4382 -0.1581 -0.3295
  422DMC     C5 2531   1.915   3.738   3.706 -0.3298 -0.2677 -0.1671
  422DMC     C6 2532   1.688   3.891   3.343  0.0586  0.1360 -0.4131
  423DMC     O1 2533   2.296   2.139   1.463 -0.2159  0.0541  0.2769
  423DMC     C2 2534   2.333   2.047   1.529  0.2491  0.1277  0.1212
  423DMC     O3 2535   2.260   1.936   1.550  0.2331  0.1393  0.1278
  423DMC     O4 2536   2.461   2.031   1.569  0.3619  0.0798 -0.2593
  423DMC     C5 2537   2.138   1.938   1.480  0.3874  0.6611 -0.1298
  423DMC     C6 2538   2.542   2.142   1.540  0.4488  0.0722 -0.0401
  424DMC     O1 2539   0.332   2.787   0.457  0.0644  0.1604 -0.2495
  424DMC     C2 2540   0.342   2.861   0.551  0.0991  0.0286 -0.1494
  424DMC     O3 2541   0.382   2.989   0.546 -0.6803  0.2804 -0.0622
  424DMC     O4 2542   0.315   2.836   0.680  0.4959  0.1267 -0.0460
  424DMC     C5 2543   0.405   3.045   0.419  0.4228  0.4503  0.2022
  424DMC     C6 2544   0.270   2.708   0.717 -0.1255  0.5495  0.7023
  425DMC     O1 2545   1.165   0.595   3.630 -0.5291  0.1183 -0.2347
  425DMC     C2 2546   1.087   0.535   3.699 -0.2470  0.6931  0.5961
  425DMC     O3 2547   0.969   0.494   3.650  0.1364  0.0070  0.2330
  425DMC     O4 2548   1.115   0.470   3.813  0.1387 -0.5957 -0.2155
  425DMC     C5 2549   0.937   0.538   3.520  0.5170 -0.0531  0.1169
  425DMC     C6 2550   1.250   0.456   3.849  0.1680  0.2122 -0.0006
  426DMC     O1 2551   0.067   3.817   3.114 -0.1409  0.7270  0.2732
  426DMC     C2 2552   0.125   3.845   3.215 -0.0175  0.5336  0.2581
  426DMC     O3 2553   0.088   3.935   3.308 -0.2939  0.7076 -0.0169
  426DMC     O4 2554   0.235   3.780   3.254 -0.0907  0.1347 -0.2014
  426DMC     C5 2555   3.932   3.974   3.315 -0.2049  1.0270 -0.0432
  426DMC     C6 2556   0.286   3.685   3.162  0.1858  0.3244 -0.2470
  427DMC     O1 2557   3.168   3.016   2.107  0.0735 -0.2266 -0.1517
  427DMC     C2 2558   3.202   2.911   2.154  0.0499 -0.1608  0.0119
  427DMC     O3 2559   3.212   2.798   2.082 -0.4077 -0.3406  0.2262
  427DMC     O4 2560   3.246   2.891   2.280 -0.1066  0.2777  0.1389
  427DMC     C5 2561   3.168   2.805   1.949 -0.3411 -0.2298  0.2093
  427DMC     C6 2562   3.296   3.001   2.353  0.4596  0.0961  0.0362
  428DMC     O1 2563   1.689   2.073   2.914  0.1385  0.2958  0.1889
  428DMC     C2 2564   1.760   1.984   2.875 -0.2910  0.0077  0.0536
  428DMC     O3 2565   1.790   1.959   2.746 -0.2972  0.1290  0.0286
  428DMC     O4 2566   1.858   1.933   2.951  0.2162  0.4843 -0.2665
  428DMC     C5 2567   1.694   2.022   2.664 -0.4550 -0.2727 -0.0951
  428DMC     C6 2568   1.871   1.981   3.083  0.7198 -0.3658  0.0010
  429DMC     O1 2569   2.609   0.608   3.730  0.4954 -0.2142  0.1400
  429DMC     C2 2570   2.719   0.620   3.684 -0.0325 -0.1815 -1.1587
  429DMC     O3 2571   2.753   0.729   3.614  0.3041  0.4190 -0.0929
  429DMC     O4 2572   2.820   0.539   3.720 -0.1637  0.2884  0.3484
  429DMC     C5 2573   2.643   0.816   3.620  0.2573  0.3239  0.4606
  429DMC     C6 2574   2.778   0.447   3.819 -1.0359  0.0666 -0.2198
  430DMC     O1 2575   2.186   0.728   3.971 -0.1289 -0.6548 -0.0183
  430DMC     C2 2576   2.148   0.625   3.923 -0.3823 -0.2848 -0.6207
  430DMC     O3 2577   2.037   0.564   3.969 -0.3342 -0.0226 -0.1493
  430DMC     O4 2578   2.179   0.580   3.800  0.1504  0.0870 -0.6283
  430DMC     C5 2579   1.956   0.638   0.080 -0.6313 -0.1987 -0.2710
  430DMC     C6 2580   2.266   0.663   3.727  0.1353  0.1835 -0.5368
  431DMC     O1 2581   3.352   2.564   0.842  0.0595  0.1213  0.5084
  431DMC     C2 2582   3.309   2.537   0.951  0.1909 -0.1463  0.4951
  431DMC     O3 2583   3.277   2.414   0.995  0.5294 -0.4837 -0.1925
  431DMC     O4 2584   3.262   2.631   1.036  0.0602  0.4324 -0.2082
  431DMC     C5 2585   3.312   2.318   0.898  0.5913 -0.3691 -0.2840
  431DMC     C6 2586   3.278   2.761   0.985 -0.1107  0.3724 -0.4201
  432DMC     O1 2587   1.459   0.229   2.484  0.0206  0.3311  0.2470
  432DMC     C2 2588   1.577   0.250   2.489  0.0902 -0.0615  0.2859
  432DMC     O3 2589   1.666   0.228   2.391 -0.1787 -0.1977  0.0711
  432DMC     O4 2590   1.634   0.341   2.570  0.1142 -0.0470  0.2531
  432DMC     C5 2591   1.611   0.164   2.278  0.1766 -0.1795 -0.1118
  432DMC     C6 2592   1.544   0.394   2.665  0.0563  0.1428  0.0930
  433DMC     O1 2593   1.258   0.035   0.171  0.2918  0.1579 -0.2454
  433DMC     C2 2594   1.243   0.125   0.092  0.1715  0.0069 -0.3955
  433DMC     O3 2595   1.303   0.245   0.101 -0.0596  0.1142 -0.2726
  433DMC     O4 2596   1.124   0.137   0.033 -0.0840 -0.3525  0.0351
  433DMC     C5 2597   1.394   0.244   0.209 -0.0902 -0.0743 -0.2474
  433DMC     C6 2598   1.046   0.020   0.039 -0.2820 -0.2107  0.2926
  434DMC     O1 2599   0.025   3.231   3.977  0.4284 -0.6203  0.2023
  434DMC     C2 2600   0.025   3.246   0.118  0.6118  0.1765  0.1118
  434DMC     O3 2601   0.001   3.361   0.184 -0.1786  0.1021 -0.0388
  434DMC     O4 2602   0.078   3.155   0.202 -0.0028 -0.1908  0.1089
  434DMC     C5 2603   3.936   3.465   0.099  0.2766  0.4694  0.1709
  434DMC     C6 2604   0.140   3.048   0.136  0.4121  0.0581  0.0950
  435DMC     O1 2605   1.996   1.005   3.800  0.3455 -0.9311 -0.1818
  435DMC     C2 2606   1.899   0.967   3.859 -0.1435  0.4169 -0.0646
  435DMC     O3 2607   1.829   0.868   3.800  0.5678 -0.0137 -0.2075
  435DMC     O4 2608   1.884   0.968   0.015  0.7027  0.1259  0.0413
  435DMC     C5 2609   1.863   0.834   3.668 -0.7056 -0.7271 -0.3650
  435DMC     C6 2610   1.986   1.050   0.067  0.3662  0.4836  0.1442
  436DMC     O1 2611   2.447   0.700   3.299 -0.2339 -0.0618  0.3827
  436DMC     C2 2612   2.400   0.780   3.223 -0.0867 -0.3646 -0.0314
  436DMC     O3 2613   2.358   0.764   3.097 -0.0978  0.0540 -0.0838
  436DMC     O4 2614   2.338   0.890   3.271  0.3345  0.0936 -0.5263
  436DMC     C5 2615   2.391   0.636   3.047  0.3050  0.1767 -0.1330
  436DMC     C6 2616   2.338   0.888   3.412  0.2296 -0.1893 -0.5289
  437DMC     O1 2617   0.734   1.336   3.232  0.0230 -0.2074 -0.0532
  437DMC     C2 2618   0.677   1.296   3.330  0.1105 -0.2308 -0.0119
  437DMC     O3 2619   0.664   1.170   3.375  0.0652 -0.1777  0.1215
  437DMC     O4 2620   0.593   1.376   3.397  0.1347 -0.2373  0.0258
  437DMC     C5 2621   0.704   1.074   3.280 -0.0157 -0.1044  0.0125
  437DMC     C6 2622   0.597   1.511   3.360  0.0718 -0.4046 -0.5936
  438DMC     O1 2623   3.749   3.585   0.881  0.0943 -0.4412 -0.1438
  438DMC     C2 2624   3.714   3.514   0.970  0.2855  0.0272  0.3115
  438DMC     O3 2625   3.793   3.418   1.023 -0.1181 -0.6687 -0.3210
  438DMC     O4 2626   3.585   3.495   1.005  0.1190  0.0808 -0.2681
  438DMC     C5 2627   3.921   3.410   0.966  0.0558 -0.2827  0.0085
  438DMC     C6 2628   3.492   3.557   0.919  0.1221  0.0780 -0.2732
  439DMC     O1 2629   0.182   0.431   1.668  0.0797 -0.0744 -0.0425
  439DMC     C2 2630   0.204   0.409   1.552  0.1827  0.4391 -0.1218
  439DMC     O3 2631   0.123   0.450   1.453  0.4585 -0.3795 -0.6910
  439DMC     O4 2632   0.281   0.307   1.509 -0.5966 -0.2614  0.1080
  439DMC     C5 2633   0.015   0.514   1.516  0.9853 -0.0924 -0.0655
  439DMC     C6 2634   0.366   0.232   1.592  0.5294  0.5522 -0.2818
  440DMC     O1 2635   2.986   2.740   3.260 -0.4465  0.1848  0.0469
  440DMC     C2 2636   3.023   2.756   3.373  0.1638 -0.0801 -0.1117
  440DMC     O3 2637   2.976   2.850   3.456 -0.3305 -0.3162 -0.1248
  440DMC     O4 2638   3.101   2.671   3.442 -0.3841 -0.4425  0.0615
  440DMC     C5 2639   2.858   2.918   3.422  0.4183  0.9595 -0.2074
  440DMC     C6 2640   3.115   2.560   3.356 -0.2215 -0.5264  0.1964
  441DMC     O1 2641   3.133   1.189   3.036 -0.3240  0.8099  0.4679
  441DMC     C2 2642   3.031   1.196   2.972 -0.3427  0.1865  0.4308
  441DMC     O3 2643   3.007   1.131   2.857  0.3269  0.1457  0.3091
  441DMC     O4 2644   2.935   1.288   2.987 -0.2812  0.3832 -0.3452
  441DMC     C5 2645   3.106   1.031   2.841 -0.2532 -0.4286  0.2579
  441DMC     C6 2646   2.984   1.380   3.082  0.4511 -0.0712 -0.2768
  442DMC     O1 2647   2.130   2.946   1.501 -0.1742 -0.6010 -0.3411
  442DMC     C2 2648   2.104   2.907   1.611 -0.2693  0.3875 -0.0089
  442DMC     O3 2649   2.193   2.839   1.685 -0.8899 -0.2772  0.1337
  442DMC     O4 2650   1.983   2.888   1.666 -0.3594 -0.0255 -0.3451
  442DMC     C5 2651   2.326   2.870   1.650 -0.7267 -0.7870  0.2812
  442DMC     C6 2652   1.881   2.921   1.574  0.2083  0.1503 -0.9167
  443DMC     O1 2653   2.140   1.368   0.684  0.0879 -0.0922  0.2897
  443DMC     C2 2654   2.234   1.382   0.757  0.1872 -0.4581  0.2342
  443DMC     O3 2655   2.334   1.292   0.767  0.1846 -0.4209  0.6016
  443DMC     O4 2656   2.223   1.441   0.878  0.3817 -0.1148  0.0850
  443DMC     C5 2657   2.344   1.222   0.646 -0.2808  0.5085  0.0077
  443DMC     C6 2658   2.100   1.498   0.916  0.4010  0.0894 -0.1575
  444DMC     O1 2659   2.228   0.588   1.050 -0.3230 -0.2490 -0.4736
  444DMC     C2 2660   2.123   0.540   1.016 -0.3167 -0.3101 -0.4073
  444DMC     O3 2661   2.041   0.609   0.935 -0.4705  0.1115  0.1050
  444DMC     O4 2662   2.065   0.423   1.044 -0.3746 -0.1631  0.0931
  444DMC     C5 2663   2.085   0.743   0.927  0.6145 -0.2533 -0.0984
  444DMC     C6 2664   2.141   0.340   1.130  0.3592  0.0825 -0.3104
  445DMC     O1 2665   1.479   3.461   3.265 -0.2390  0.0233  0.1424
  445DMC     C2 2666   1.396   3.515   3.333  0.3787  1.0091  0.1260
  445DMC     O3 2667   1.277   3.558   3.288 -0.0934 -0.3206  0.0653
  445DMC     O4 2668   1.388   3.518   3.467 -0.0876 -0.0125  0.1277
  445DMC     C5 2669   1.271   3.546   3.148 -0.8957 -0.1043  0.0762
  445DMC     C6 2670   1.483   3.425   3.515 -0.5115 -0.4526  0.1192
  446DMC     O1 2671   1.814   0.837   1.574  0.3826 -0.1112  0.3445
  446DMC     C2 2672   1.932   0.832   1.554  0.3866  0.5069  0.1926
  446DMC     O3 2673   2.011   0.762   1.637 -0.2168  0.4679  0.7381
  446DMC     O4 2674   2.009   0.932   1.506  0.3026  0.2667 -0.4507
  446DMC     C5 2675   1.941   0.678   1.726  0.0997 -0.4022  0.1805
  446DMC     C6 2676   1.925   1.029   1.449 -0.4128  0.0665  0.2495
  447DMC     O1 2677   0.192   1.900   1.519 -0.5740 -0.1963  0.1829
  447DMC     C2 2678   0.165   1.847   1.624 -0.1398 -0.2510  0.2672
  447DMC     O3 2679   0.154   1.922   1.735 -0.0065 -0.1181  0.1913
  447DMC     O4 2680   0.146   1.718   1.657 -0.0834 -0.3723 -0.1666
  447DMC     C5 2681   0.156   2.060   1.707 -0.2506 -0.0322  0.5969
  447DMC     C6 2682   0.098   1.644   1.548 -0.0948  0.3262 -0.6437
  448DMC     O1 2683   0.626   0.732   3.776  0.0505  0.4903 -0.0270
  448DMC     C2 2684   0.741   0.763   3.794  0.3458 -0.4329 -0.2753
  448DMC     O3 2685   0.831   0.685   3.857  0.3651  0.1392  0.4153
  448DMC     O4 2686   0.778   0.892   3.798 -1.1700  0.0125  0.0721
  448DMC     C5 2687   0.779   0.555   3.873 -0.0870  0.2294 -0.2751
  448DMC     C6 2688   0.670   0.977   3.769 -1.0622  0.2362  0.3274
  449DMC     O1 2689   2.352   1.340   3.099 -0.2563  0.3662 -0.1810
  449DMC     C2 2690   2.359   1.361   3.217 -0.7781  0.2634 -0.1278
  449DMC     O3 2691   2.403   1.474   3.275 -0.5542  0.1607 -0.0963
  449DMC     O4 2692   2.271   1.307   3.303 -0.4965 -0.1678 -0.1068
  449DMC     C5 2693   2.453   1.568   3.182 -0.3219 -0.3551 -0.4963
  449DMC     C6 2694   2.160   1.256   3.233 -0.3880 -0.1457 -0.2954
  450DMC     O1 2695   2.758   3.141   3.033  0.1022 -0.4173  0.0559
  450DMC     C2 2696   2.662   3.098   3.090  0.3478 -0.1608  0.6763
  450DMC     O3 2697   2.555   3.178   3.104  0.4487  0.0612  0.2006
  450DMC     O4 2698   2.635   2.968   3.111  0.7463 -0.2930  0.3870
  450DMC     C5 2699   2.560   3.304   3.041  0.0682 -0.1131 -0.1887
  450DMC     C6 2700   2.739   2.893   3.052  0.4050 -0.3988 -0.0849
  451DMC     O1 2701   1.453   1.533   0.198  0.1590 -0.1190  0.4560
  451DMC     C2 2702   1.518   1.432   0.209 -0.0760 -0.2460  0.6891
  451DMC     O3 2703   1.640   1.430   0.264  0.3833 -0.2173 -0.2931
  451DMC     O4 2704   1.485   1.303   0.189 -0.0875 -0.1257 -0.1175
  451DMC     C5 2705   1.696   1.559   0.274 -0.5751  0.1550  0.4216
  451DMC     C6 2706   1.345   1.288   0.181 -0.0512 -0.3274 -0.3735
  452DMC     O1 2707   3.419   0.687   1.658  0.0199  0.1360 -0.0042
  452DMC     C2 2708   3.418   0.778   1.580  0.0277 -0.1472 -0.3378
  452DMC     O3 2709   3.369   0.898   1.617 -0.1007 -0.3382  0.1221
  452DMC     O4 2710   3.513   0.799   1.488 -0.2560  0.3584 -0.5202
  452DMC     C5 2711   3.314   0.903   1.747 -0.9849 -0.5033 -0.2411
  452DMC     C6 2712   3.572   0.676   1.450  0.3022  0.4535  0.0258
  453DMC     O1 2713   3.200   0.467   0.271 -0.0250  0.1955  0.0731
  453DMC     C2 2714   3.230   0.579   0.239 -0.3068  0.2259 -0.0898
  453DMC     O3 2715   3.129   0.666   0.224 -0.3681  0.2762  0.5914
  453DMC     O4 2716   3.325   0.608   0.148  0.1954 -0.1066  0.3196
  453DMC     C5 2717   3.013   0.601   0.176 -0.0777  0.0906  0.1425
  453DMC     C6 2718   3.400   0.492   0.124  0.0633 -0.0947 -0.1593
  454DMC     O1 2719   2.638   3.367   1.689 -0.4322 -0.1158 -0.4310
  454DMC     C2 2720   2.525   3.380   1.651 -0.3320  0.7302 -0.4462
  454DMC     O3 2721   2.446   3.482   1.689 -0.2788  0.5867  0.0465
  454DMC     O4 2722   2.457   3.281   1.591  0.0442 -0.1448  0.5546
  454DMC     C5 2723   2.496   3.571   1.786  0.3636 -0.2058  0.4632
  454DMC     C6 2724   2.546   3.177   1.557 -0.4226 -0.3412 -0.0907
  455DMC     O1 2725   2.593   1.813   0.741  0.0962  0.4928 -0.1262
  455DMC     C2 2726   2.672   1.858   0.662  0.4210 -0.0742 -0.1290
  455DMC     O3 2727   2.782   1.802   0.608  0.3485 -0.4213  0.0773
  455DMC     O4 2728   2.681   1.990   0.641  0.2325 -0.0071  0.2079
  455DMC     C5 2729   2.805   1.670   0.649 -0.0033 -0.5381 -0.0925
  455DMC     C6 2730   2.586   2.048   0.728 -0.6225 -1.2473  0.1224
  456DMC     O1 2731   0.453   1.464   3.935  0.6604 -0.2570  0.4192
  456DMC     C2 2732   0.376   1.382   3.976 -0.0984  0.3510  0.2447
  456DMC     O3 2733   0.302   1.314   3.886 -0.0865  0.7690 -0.0852
  456DMC     O4 2734   0.396   1.303   0.105 -0.1021  0.3771  0.2648
  456DMC     C5 2735   0.306   1.369   3.756  0.0298  0.1282 -0.3576
  456DMC     C6 2736   0.528   1.327   0.149  0.1672  0.3247 -0.4817
  457DMC     O1 2737   3.101   1.879   0.959  0.4259  0.3543  0.3355
  457DMC     C2 2738   3.093   1.999   0.960 -0.3203  0.3143 -0.2018
  457DMC     O3 2739   3.080   2.072   0.848 -0.2667  0.3761 -0.1682
  457DMC     O4 2740   3.120   2.078   1.066 -0.0140 -0.1065  0.0388
  457DMC     C5 2741   3.004   2.007   0.749 -0.4748 -0.1865  0.3534
  457DMC     C6 2742   3.151   1.993   1.174 -0.2851 -0.5881 -0.2557
  458DMC     O1 2743   1.013   0.083   3.437 -0.9486  0.3101  0.4495
  458DMC     C2 2744   1.021   3.969   3.513 -0.0294 -0.6267 -0.7521
  458DMC     O3 2745   1.082   3.850   3.497  0.8382 -0.3053  0.0690
  458DMC     O4 2746   0.979   0.005   3.640  0.1865  0.2984 -0.7831
  458DMC     C5 2747   1.161   3.847   3.380  0.1133 -0.0966 -0.4386
  458DMC     C6 2748   0.957   0.142   3.663  0.1929  0.2455 -0.4622
  459DMC     O1 2749   0.531   3.282   0.110 -0.1475 -0.0668  0.0854
  459DMC     C2 2750   0.535   3.392   0.159 -0.1844 -0.0872  0.1346
  459DMC     O3 2751   0.635   3.481   0.147 -0.4499  0.2675  0.5435
  459DMC     O4 2752   0.431   3.461   0.209 -0.1848 -0.2980  0.4293
  459DMC     C5 2753   0.742   3.438   0.067 -0.3869  0.2131  0.6567
  459DMC     C6 2754   0.320   3.378   0.234 -0.1093 -0.4453  0.2790
  460DMC     O1 2755   0.261   3.451   2.002 -0.0605  0.0815 -0.0541
  460DMC     C2 2756   0.289   3.357   2.072 -0.2296  0.0168 -0.0740
  460DMC     O3 2757   0.386   3.267   2.050  0.0151  0.2727 -0.0400
  460DMC     O4 2758   0.218   3.320   2.180  0.1104 -0.0978  0.1099
  460DMC     C5 2759   0.444   3.304   1.927  0.3747  1.1108  0.3746
  460DMC     C6 2760   0.096   3.383   2.211  0.1097  0.1049 -0.2932
  461DMC     O1 2761   0.539   2.575   2.258  0.0365  0.3264 -0.4671
  461DMC     C2 2762   0.457   2.541   2.338  0.4160 -0.0742 -0.2464
  461DMC     O3 2763   0.334   2.503   2.302  0.1431  0.4021  0.1706
  461DMC     O4 2764   0.469   2.553   2.471  0.4642 -1.0011 -0.1594
  461DMC     C5 2765   0.311   2.523   2.164 -0.5209  0.1862  0.2438
  461DMC     C6 2766   0.599   2.580   2.520  0.0198 -0.2963  0.6563
  462DMC     O1 2767   3.378   1.549   3.485 -0.0021 -0.1662 -0.1300
  462DMC     C2 2768   3.266   1.558   3.441  0.1064  0.5673 -0.2581
  462DMC     O3 2769   3.150   1.563   3.508  0.0995  0.2733 -0.2474
  462DMC     O4 2770   3.231   1.529   3.314 -0.8805 -0.6023  0.2708
  462DMC     C5 2771   3.160   1.522   3.642 -0.4688  0.0588 -0.2687
  462DMC     C6 2772   3.343   1.473   3.250 -0.5044  0.1518  0.2631
  463DMC     O1 2773   2.363   2.741   0.455 -0.0744  0.0236 -0.3020
  463DMC     C2 2774   2.460   2.732   0.386  0.3484 -0.0213  0.2928
  463DMC     O3 2775   2.527   2.618   0.358  0.3707  0.0220  0.1667
  463DMC     O4 2776   2.485   2.830   0.298 -0.8220 -0.0718 -0.1118
  463DMC     C5 2777   2.479   2.513   0.439  0.3850  0.0388  0.1974
  463DMC     C6 2778   2.409   2.946   0.325  0.0626  0.3378  0.6628
  464DMC     O1 2779   1.610   1.595   2.964  0.2310  0.2349 -0.0065
  464DMC     C2 2780   1.728   1.579   2.979  0.2749  0.6036  0.0687
  464DMC     O3 2781   1.777   1.540   3.098 -0.0404 -0.2414 -0.0687
  464DMC     O4 2782   1.828   1.609   2.894  0.4562  0.1222  0.1034
  464DMC     C5 2783   1.671   1.532   3.191  0.0980  0.2288  0.1318
  464DMC     C6 2784   1.781   1.634   2.764 -0.5583  0.0005  0.4428
  465DMC     O1 2785   2.599   1.863   3.845  0.0817  0.3758 -0.8494
  465DMC     C2 2786   2.546   1.968   3.823 -0.1514  0.4112 -0.1369
  465DMC     O3 2787   2.441   1.994   3.742 -0.5184  0.2339  0.2785
  465DMC     O4 2788   2.576   2.081   3.889  0.0127  0.4853 -0.3381
  465DMC     C5 2789   2.404   1.879   3.671  0.7354  0.0736 -0.1427
  465DMC     C6 2790   2.671   2.063   0.013 -0.5684 -0.4419  0.0449
  466DMC     O1 2791   3.507   2.634   3.884 -0.3782  0.4139  0.2292
  466DMC     C2 2792   3.423   2.657   3.801 -0.0364  0.6474 -0.0550
  466DMC     O3 2793   3.418   2.771   3.730 -0.2087  0.6379 -0.0580
  466DMC     O4 2794   3.330   2.566   3.767  0.4323  0.1349  0.0315
  466DMC     C5 2795   3.509   2.865   3.782  0.1480 -0.1071  0.6885
  466DMC     C6 2796   3.350   2.448   3.842  0.4670  0.4587  0.5383
  467DMC     O1 2797   2.595   1.970   1.064  0.1577  0.3709  0.2723
  467DMC     C2 2798   2.704   2.017   1.082  0.1915  0.2352  0.4166
  467DMC     O3 2799   2.735   2.144   1.113  0.1314  0.4196 -0.2686
  467DMC     O4 2800   2.820   1.956   1.052  0.3243  0.6721  0.0318
  467DMC     C5 2801   2.620   2.224   1.102 -0.1060  0.0921 -0.1955
  467DMC     C6 2802   2.788   1.824   1.015 -0.0759  0.7767  0.0009
  468DMC     O1 2803   1.330   0.681   2.797 -0.7545 -0.1585 -0.8566
  468DMC     C2 2804   1.273   0.748   2.878  0.0961 -0.1750 -0.2220
  468DMC     O3 2805   1.140   0.771   2.869 -0.0212 -0.6225  0.3769
  468DMC     O4 2806   1.323   0.811   2.985  0.4144  0.2746 -0.6304
  468DMC     C5 2807   1.074   0.729   2.752  0.3439  0.3161 -0.1734
  468DMC     C6 2808   1.461   0.782   2.986  0.3557  0.0062 -0.2337
  469DMC     O1 2809   1.284   1.175   1.195 -0.2282  0.1358  0.1362
  469DMC     C2 2810   1.345   1.104   1.271 -0.4526 -0.3164 -0.1046
  469DMC     O3 2811   1.304   1.061   1.391 -0.3199 -0.0581  0.0334
  469DMC     O4 2812   1.465   1.049   1.248 -0.0916  0.2552  0.3807
  469DMC     C5 2813   1.196   1.136   1.440  0.0952  0.4003  0.2554
  469DMC     C6 2814   1.525   1.097   1.130 -0.0905  0.1635  0.3437
  470DMC     O1 2815   3.632   1.170   3.619  0.5433 -0.3405 -0.3688
  470DMC     C2 2816   3.562   1.083   3.574 -0.4273  0.0163  0.4289
  470DMC     O3 2817   3.592   0.986   3.487 -0.0273  0.1300  0.4370
  470DMC     O4 2818   3.431   1.075   3.604 -0.5214  0.2812  0.0971
  470DMC     C5 2819   3.711   0.987   3.411 -0.1648 -0.2399  0.2115
  470DMC     C6 2820   3.403   1.145   3.724 -0.4327 -0.2130  0.4070
  471DMC     O1 2821   1.854   3.973   1.402 -0.1758  0.3688  0.4458
  471DMC     C2 2822   1.848   3.853   1.397 -0.5260  0.4113 -0.2220
  471DMC     O3 2823   1.956   3.774   1.395 -0.6829  0.2021 -0.4306
  471DMC     O4 2824   1.733   3.789   1.366 -0.3881 -0.1004  0.2919
  471DMC     C5 2825   2.073   3.852   1.402 -0.2840 -0.4650  0.4995
  471DMC     C6 2826   1.645   3.892   1.326 -0.2590 -0.1198 -0.0509
  472DMC     O1 2827   2.759   1.355   1.086  0.2015 -0.0504  0.5387
  472DMC     C2 2828   2.722   1.469   1.099  0.3713  0.1108 -0.3724
  472DMC     O3 2829   2.641   1.531   1.011  0.2693  0.1801 -0.2289
  472DMC     O4 2830   2.734   1.533   1.216  0.0963 -0.0880 -0.2339
  472DMC     C5 2831   2.619   1.444   0.902  0.2747 -0.0319 -0.0613
  472DMC     C6 2832   2.805   1.468   1.319  0.0287  0.1903 -0.0096
  473DMC     O1 2833   0.321   1.231   3.274  0.0355 -0.0087 -0.8383
  473DMC     C2 2834   0.307   1.270   3.387  0.2088 -0.0084 -0.8164
  473DMC     O3 2835   0.243   1.387   3.404 -0.1095 -0.2583 -0.2640
  473DMC     O4 2836   0.315   1.190   3.494  0.5908  0.4927 -0.4675
  473DMC     C5 2837   0.195   1.443   3.284 -0.1649  0.1223 -0.0686
  473DMC     C6 2838   0.339   1.055   3.464 -0.8437  0.0786  0.1611
  474DMC     O1 2839   0.272   2.517   3.248 -0.0421 -0.0765  0.4930
  474DMC     C2 2840   0.174   2.450   3.231  0.0283 -0.0688  0.0414
  474DMC     O3 2841   0.177   2.316   3.230  0.0236 -0.0686 -0.0026
  474DMC     O4 2842   0.049   2.499   3.231  0.0317 -0.0602 -0.1397
  474DMC     C5 2843   0.307   2.265   3.246 -0.1981 -0.6390  0.0014
  474DMC     C6 2844   0.031   2.637   3.255  0.4350 -0.0880  0.3311
  475DMC     O1 2845   1.510   0.984   1.915 -0.0812 -0.5833 -0.0527
  475DMC     C2 2846   1.421   0.909   1.886 -0.3139 -0.1648 -0.4324
  475DMC     O3 2847   1.422   0.803   1.804  0.4739 -0.6605  0.1953
  475DMC     O4 2848   1.312   0.900   1.965  0.3911 -0.3319  0.5499
  475DMC     C5 2849   1.552   0.774   1.758  0.4862 -0.5994  0.1924
  475DMC     C6 2850   1.318   1.011   2.051 -0.2065 -0.4760  0.7803
  476DMC     O1 2851   2.134   2.874   2.505  0.6906  0.2264 -0.2854
  476DMC     C2 2852   2.046   2.912   2.433 -0.0459  0.2097  0.5867
  476DMC     O3 2853   1.949   2.836   2.379 -0.0960  0.3268  0.5105
  476DMC     O4 2854   2.054   3.025   2.359  0.0532 -0.1039  0.1169
  476DMC     C5 2855   1.934   2.706   2.432  0.0594 -0.1195 -0.5147
  476DMC     C6 2856   2.185   3.072   2.337  0.1983 -0.5600 -0.0099
  477DMC     O1 2857   2.361   0.833   1.343  0.4263  0.5239 -0.3389
  477DMC     C2 2858   2.258   0.814   1.285  0.0862  0.7156  0.2028
  477DMC     O3 2859   2.180   0.706   1.307 -0.1401  0.9104  0.3556
  477DMC     O4 2860   2.217   0.871   1.171  0.4786 -0.4490 -0.5378
  477DMC     C5 2861   2.235   0.629   1.412  0.6838  0.3591 -0.4666
  477DMC     C6 2862   2.301   0.975   1.128  0.2537 -0.0251  0.0451
  478DMC     O1 2863   1.491   1.718   3.646 -0.2572 -0.1314 -0.6789
  478DMC     C2 2864   1.393   1.659   3.683  0.3076 -0.4956  0.2692
  478DMC     O3 2865   1.350   1.644   3.810 -0.6678  0.4440  0.0620
  478DMC     O4 2866   1.335   1.560   3.614 -0.1576  0.2307 -0.3892
  478DMC     C5 2867   1.426   1.726   3.896  0.2833 -0.6362  0.2814
  478DMC     C6 2868   1.409   1.547   3.495  0.2318  0.4115 -0.1674
  479DMC     O1 2869   2.561   2.285   3.408  0.3283  0.2093  0.4135
  479DMC     C2 2870   2.597   2.229   3.508  0.4969 -0.0326  0.2172
  479DMC     O3 2871   2.677   2.121   3.511  0.2170 -0.2478 -0.0268
  479DMC     O4 2872   2.558   2.252   3.635 -0.1035 -0.4372  0.1116
  479DMC     C5 2873   2.698   2.075   3.379 -0.8027 -0.2088 -0.2161
  479DMC     C6 2874   2.463   2.354   3.653  0.0172 -0.2221 -0.4442
  480DMC     O1 2875   0.491   0.223   3.120  0.0101  0.7343  0.0560
  480DMC     C2 2876   0.406   0.244   3.038 -0.0646  0.0856 -0.0433
  480DMC     O3 2877   0.333   0.148   2.980  0.4574  0.0236 -0.6050
  480DMC     O4 2878   0.336   0.357   3.016  0.5288  0.3799 -0.4691
  480DMC     C5 2879   0.403   0.026   2.974  0.2831 -0.1171  0.2259
  480DMC     C6 2880   0.329   0.443   3.127  0.6901 -0.3208  0.0913
  481DMC     O1 2881   0.071   0.627   2.425  0.1531 -0.0059 -0.3455
  481DMC     C2 2882   0.051   0.724   2.493  0.0025 -0.0458 -0.3323
  481DMC     O3 2883   0.143   0.820   2.515 -0.1718  0.1307 -0.3756
  481DMC     O4 2884   3.926   0.739   2.576  0.3863 -0.2314  0.1928
  481DMC     C5 2885   0.272   0.807   2.461 -0.2372 -0.0805 -0.4818
  481DMC     C6 2886   3.842   0.626   2.578  0.0233  0.0397  0.2421
  482DMC     O1 2887   0.022   1.164   1.925  0.3688  0.1759  0.2950
  482DMC     C2 2888   0.034   1.202   1.812 -0.6639  0.0724  0.1421
  482DMC     O3 2889   0.082   1.127   1.712  0.1178  0.1220  0.4749
  482DMC     O4 2890   0.037   1.332   1.780 -0.3205  0.0250 -0.0166
  482DMC     C5 2891   0.079   0.991   1.747  0.3481  0.0164  0.0922
  482DMC     C6 2892   3.977   1.419   1.884  0.6225  0.1472  0.2488
  483DMC     O1 2893   2.978   2.539   1.891 -0.4522  0.1674  0.4770
  483DMC     C2 2894   2.954   2.433   1.941  0.0403  0.1344  0.6504
  483DMC     O3 2895   3.019   2.387   2.049  0.1455 -0.1115  0.4823
  483DMC     O4 2896   2.870   2.340   1.893  0.3696  0.2008 -0.0608
  483DMC     C5 2897   3.124   2.471   2.090 -0.0508  0.4221 -0.0980
  483DMC     C6 2898   2.789   2.375   1.782  0.1587  0.4042  0.1559
  484DMC     O1 2899   1.460   1.876   2.977  0.0167 -0.5853 -0.0542
  484DMC     C2 2900   1.349   1.903   3.013  0.1440 -0.2318  0.0800
  484DMC     O3 2901   1.280   1.820   3.093 -0.3512  0.2399  0.1495
  484DMC     O4 2902   1.278   2.007   2.966  0.5241 -0.1306 -0.2725
  484DMC     C5 2903   1.350   1.699   3.110 -0.3241  0.1854 -0.3383
  484DMC     C6 2904   1.349   2.090   2.877  0.2594  0.0971 -0.2730
  485DMC     O1 2905   1.906   3.315   2.472  0.0707 -0.1838 -0.5005
  485DMC     C2 2906   1.968   3.384   2.396  0.9797 -0.0569  0.3442
  485DMC     O3 2907   1.949   3.375   2.264 -0.4742  0.5395  0.5009
  485DMC     O4 2908   2.017   3.506   2.424  0.3756  0.1633  0.4532
  485DMC     C5 2909   1.861   3.268   2.236  0.1457  0.1281  0.0992
  485DMC     C6 2910   1.979   3.564   2.547  0.2688 -0.1239  0.5550
  486DMC     O1 2911   3.668   1.449   2.096 -0.1843 -0.1754 -0.0750
  486DMC     C2 2912   3.748   1.406   2.174 -0.2659 -0.2123 -0.0115
  486DMC     O3 2913   3.807   1.483   2.267 -0.0201 -0.0501 -0.2976
  486DMC     O4 2914   3.795   1.280   2.179 -0.3422 -0.2288  0.3015
  486DMC     C5 2915   3.774   1.621   2.269  0.6283  0.1036 -0.0443
  486DMC     C6 2916   3.728   1.207   2.079 -0.2521  0.1497 -0.0391
  487DMC     O1 2917   0.578   2.380   2.968  0.2002  0.1880  0.0726
  487DMC     C2 2918   0.523   2.400   2.863  0.2382 -0.0595  0.0058
  487DMC     O3 2919   0.474   2.518   2.824  0.5831  0.0044 -0.2334
  487DMC     O4 2920   0.492   2.311   2.767  0.1628  0.0006 -0.0251
  487DMC     C5 2921   0.518   2.637   2.887  0.3014 -0.3009  0.5443
  487DMC     C6 2922   0.522   2.181   2.812 -0.2884 -0.1658 -0.1962
  488DMC     O1 2923   3.407   2.692   2.803 -0.2398 -0.1322  0.0962
  488DMC     C2 2924   3.356   2.676   2.695 -0.0842 -0.4149  0.0631
  488DMC     O3 2925   3.335   2.567   2.620 -0.7340 -0.0881 -0.2320
  488DMC     O4 2926   3.331   2.777   2.611  0.1640 -0.1134  0.3462
  488DMC     C5 2927   3.362   2.449   2.692  0.0249  0.1102 -0.1848
  488DMC     C6 2928   3.386   2.893   2.670 -0.3421  0.0987  0.4030
  489DMC     O1 2929   0.730   2.125   2.091 -0.0716  0.4088 -0.0243
  489DMC     C2 2930   0.635   2.144   2.020 -0.2359  0.4059  0.1934
  489DMC     O3 2931   0.616   2.245   1.934  0.2205 -0.2484 -0.6961
  489DMC     O4 2932   0.565   2.034   1.988  0.4816  0.0125 -0.0561
  489DMC     C5 2933   0.717   2.344   1.941 -0.4518  0.4043 -0.1051
  489DMC     C6 2934   0.599   1.925   2.070 -0.1223 -0.5504 -0.5387
  490DMC     O1 2935   1.394   3.212   1.681 -0.5257  0.1102  0.5878
  490DMC     C2 2936   1.423   3.105   1.725 -0.0204 -0.0627 -0.1523
  490DMC     O3 2937   1.408   3.066   1.853  0.2550  0.0188 -0.0949
  490DMC     O4 2938   1.479   3.006   1.654 -0.0468 -0.3522  0.2269
  490DMC     C5 2939   1.339   3.166   1.926 -0.4725 -0.2357 -0.4253
  490DMC     C6 2940   1.514   3.059   1.528  0.0061 -0.2937  0.2659
  491DMC     O1 2941   1.267   2.074   2.063  0.5137 -0.4502 -0.3634
  491DMC     C2 2942   1.291   2.165   2.138  0.0977 -0.0734 -0.6823
  491DMC     O3 2943   1.378   2.155   2.240 -0.0370 -0.1326 -0.5713
  491DMC     O4 2944   1.231   2.285   2.132  0.0706 -0.0205  0.3962
  491DMC     C5 2945   1.458   2.039   2.234  0.1123 -0.0596 -0.0451
  491DMC     C6 2946   1.120   2.290   2.046  0.2700 -0.2164  0.1226
  492DMC     O1 2947   1.217   3.848   0.860  0.8034  0.5090 -0.1689
  492DMC     C2 2948   1.146   3.928   0.806 -0.1799 -0.0062  0.3291
  492DMC     O3 2949   1.118   0.068   0.864 -0.8494  0.0165 -0.0465
  492DMC     O4 2950   1.133   3.934   0.673  0.5835  0.0907  0.2514
  492DMC     C5 2951   1.160   0.080   0.997 -0.3066 -1.0734 -0.1097
  492DMC     C6 2952   1.219   3.842   0.608  0.5934 -0.3300  0.8517
  493DMC     O1 2953   1.034   0.692   3.214 -0.1814 -0.1385 -0.3381
  493DMC     C2 2954   1.018   0.808   3.190 -0.5444 -0.0215  0.4182
  493DMC     O3 2955   1.033   0.906   3.280  0.7650  0.2261 -0.0493
  493DMC     O4 2956   0.929   0.849   3.097  0.2627 -0.0890 -0.4051
  493DMC     C5 2957   1.095   0.872   3.402 -0.1547  0.3302  0.4562
  493DMC     C6 2958   0.840   0.750   3.053  0.2482 -0.2586 -0.0008
  494DMC     O1 2959   1.482   2.367   2.725 -0.7393 -0.0204 -0.7424
  494DMC     C2 2960   1.535   2.354   2.618  0.1522 -0.5693 -0.2439
  494DMC     O3 2961   1.658   2.401   2.594  0.0665 -0.3180 -0.1975
  494DMC     O4 2962   1.482   2.284   2.517 -0.0256 -0.1831 -0.4197
  494DMC     C5 2963   1.714   2.440   2.717  0.3997 -0.8131 -0.1866
  494DMC     C6 2964   1.353   2.235   2.547  0.0298  0.0668  0.2393
  495DMC     O1 2965   3.460   2.011   0.984  0.0597  0.5761 -0.1462
  495DMC     C2 2966   3.520   1.913   0.949 -0.1589  0.2188  0.4645
  495DMC     O3 2967   3.536   1.804   1.025 -0.3450 -0.1116  0.0339
  495DMC     O4 2968   3.633   1.928   0.877  0.0052 -0.0213  0.6710
  495DMC     C5 2969   3.455   1.814   1.140 -0.4962  0.1138 -0.0925
  495DMC     C6 2970   3.658   2.066   0.873 -0.0629 -0.0308 -0.3468
  496DMC     O1 2971   1.801   0.606   1.264  0.0440  0.1961  0.3112
  496DMC     C2 2972   1.701   0.611   1.330  0.0784  0.5250  0.3386
  496DMC     O3 2973   1.587   0.675   1.298 -0.1952  0.1085  0.4726
  496DMC     O4 2974   1.667   0.515   1.417  0.4935 -0.0547 -0.1335
  496DMC     C5 2975   1.586   0.723   1.165 -0.0730  0.2963  0.5391
  496DMC     C6 2976   1.780   0.441   1.460  0.5056 -0.0517 -0.1601
  497DMC     O1 2977   0.635   1.236   1.064  0.5515  0.3493  0.2422
  497DMC     C2 2978   0.523   1.232   1.107  0.5493 -0.2956  0.1922
  497DMC     O3 2979   0.442   1.126   1.120 -0.1116  0.1715 -0.0486
  497DMC     O4 2980   0.478   1.336   1.180 -0.2351  0.0202 -0.7270
  497DMC     C5 2981   0.509   1.016   1.062 -0.5474 -0.2606  0.2619
  497DMC     C6 2982   0.570   1.438   1.209 -0.2565  0.0637 -0.8101
  498DMC     O1 2983   0.850   0.371   1.404  0.4071  0.5803 -0.2833
  498DMC     C2 2984   0.839   0.469   1.472  0.2366  0.3585  0.0066
  498DMC     O3 2985   0.935   0.511   1.556  0.3131  0.3008 -0.0511
  498DMC     O4 2986   0.723   0.526   1.509  0.1617  0.3489 -0.2140
  498DMC     C5 2987   1.050   0.431   1.557  0.0449 -0.0854  0.0312
  498DMC     C6 2988   0.619   0.447   1.457  0.4508 -0.2083  0.0438
  499DMC     O1 2989   3.557   1.964   2.991  0.0413 -0.1343  0.3478
  499DMC     C2 2990   3.472   1.879   2.991  0.2183 -0.3221 -0.5964
  499DMC     O3 2991   3.364   1.885   2.912  0.5090  0.7761 -0.9266
  499DMC     O4 2992   3.486   1.758   3.048 -0.6569  0.0235  0.3934
  499DMC     C5 2993   3.340   2.005   2.842  0.0118  0.7077 -0.8742
  499DMC     C6 2994   3.601   1.741   3.127 -0.3140  0.3985 -0.0217
  500DMC     O1 2995   0.664   2.031   3.630 -0.0950  0.8846 -0.4090
  500DMC     C2 2996   0.593   1.979   3.549 -0.3832 -0.5232  0.7158
  500DMC     O3 2997   0.462   2.009   3.547 -0.2389  0.0907 -0.1545
  500DMC     O4 2998   0.624   1.888   3.455  0.1459  0.1968  0.1815
  500DMC     C5 2999   0.425   2.095   3.653  0.8400  0.3451  0.0355
  500DMC     C6 3000   0.765   1.893   3.450  0.1383  0.3339  0.1013
  501DMC     O1 3001   1.294   3.795   1.270  0.2611 -0.1778 -0.0369
  501DMC     C2 3002   1.249   3.684   1.285 -0.1099 -0.0147  0.0659
  501DMC     O3 3003   1.140   3.635   1.224 -0.0147 -0.1783  0.0280
  501DMC     O4 3004   1.300   3.594   1.371 -0.2294 -0.2366 -0.0962
  501DMC     C5 3005   1.061   3.726   1.152 -0.0782 -0.1820  0.0930
  501DMC     C6 3006   1.415   3.644   1.435 -0.4061  0.1844 -0.1040
  502DMC     O1 3007   3.209   3.744   3.041 -0.5132 -0.0372 -0.1085
  502DMC     C2 3008   3.154   3.741   2.934 -0.1252  0.3116 -0.3226
  502DMC     O3 3009   3.021   3.757   2.921 -0.1257  0.2890 -0.3466
  502DMC     O4 3010   3.208   3.746   2.812  0.2629 -0.1114 -0.1697
  502DMC     C5 3011   2.962   3.767   3.049  0.3985  0.0306 -0.0812
  502DMC     C6 3012   3.349   3.743   2.814  0.2701  0.2297 -0.1620
  503DMC     O1 3013   2.162   3.869   0.171  0.4311 -0.0508  0.4166
  503DMC     C2 3014   2.131   3.830   0.280  0.0271 -0.0748  0.2960
  503DMC     O3 3015   2.205   3.854   0.390  0.1709  0.1641  0.1480
  503DMC     O4 3016   2.038   3.737   0.306  0.2689 -0.2612  0.5017
  503DMC     C5 3017   2.317   3.935   0.362  0.1951  0.2154  0.3906
  503DMC     C6 3018   1.955   3.684   0.204  0.1872 -0.4791  0.6812
  504DMC     O1 3019   0.026   3.745   2.631 -0.5172 -0.1600  0.0813
  504DMC     C2 3020   3.924   3.816   2.578 -0.2512  0.0872 -0.0020
  504DMC     O3 3021   3.928   3.877   2.458 -0.2783  0.2381  0.0741
  504DMC     O4 3022   3.797   3.801   2.620  0.0295 -0.5142  0.6413
  504DMC     C5 3023   0.079   3.889   2.407 -0.1407 -0.0767  0.3474
  504DMC     C6 3024   3.784   3.709   2.726  0.1771  0.1008  1.2049
  505DMC     O1 3025   3.797   0.518   2.168 -0.0333  0.4971  0.1014
  505DMC     C2 3026   3.904   0.467   2.189 -0.3219 -0.1599  0.0220
  505DMC     O3 3027   3.926   0.345   2.240  0.0434 -0.0948  0.0256
  505DMC     O4 3028   0.030   0.503   2.114 -0.0756 -0.1783  0.3596
  505DMC     C5 3029   3.800   0.298   2.285  0.4720 -0.1448  1.2133
  505DMC     C6 3030   0.015   0.592   2.006  0.7111 -0.3991  0.0554
  506DMC     O1 3031   1.684   0.448   0.192 -0.1336 -0.3396 -0.0369
  506DMC     C2 3032   1.620   0.549   0.185  0.2956 -0.0486  0.1405
  506DMC     O3 3033   1.572   0.622   0.287  0.1119 -0.2609  0.2072
  506DMC     O4 3034   1.600   0.618   0.072  0.0896 -0.2103  0.0771
  506DMC     C5 3035   1.630   0.594   0.412  0.7154 -0.0655 -0.0269
  506DMC     C6 3036   1.638   0.551   3.932 -0.6164 -0.5998  0.0642
  507DMC     O1 3037   3.900   0.899   2.052  0.0169 -0.2381 -0.2395
  507DMC     C2 3038   3.924   0.955   2.155 -0.2724 -0.1840 -0.2005
  507DMC     O3 3039   3.846   0.934   2.263 -0.2481  0.4677 -0.0532
  507DMC     O4 3040   0.071   0.967   2.196 -0.2259  0.1995 -0.4566
  507DMC     C5 3041   3.726   0.865   2.235 -0.3770  0.4522  0.5282
  507DMC     C6 3042   0.164   0.925   2.099 -0.3641 -0.5503 -0.2643
  508DMC     O1 3043   1.258   2.632   2.595 -0.2396  0.0967  0.0596
  508DMC     C2 3044   1.362   2.664   2.543 -0.3589  0.0531 -0.2058
  508DMC     O3 3045   1.388   2.638   2.414  0.2864  0.2487 -0.1174
  508DMC     O4 3046   1.471   2.697   2.615 -0.2390 -0.4842 -0.1307
  508DMC     C5 3047   1.277   2.566   2.366  0.3206  0.3340 -0.3247
  508DMC     C6 3048   1.432   2.686   2.750 -0.4296  0.6983 -0.0762
  509DMC     O1 3049   1.514   1.101   2.613 -0.2191 -0.1638  0.1534
  509DMC     C2 3050   1.423   1.151   2.552  0.1784  0.4573  0.0525
  509DMC     O3 3051   1.294   1.131   2.583  0.1349  0.1160 -0.3439
  509DMC     O4 3052   1.438   1.232   2.446  0.0292 -0.1510 -0.4398
  509DMC     C5 3053   1.281   1.051   2.699 -0.2813  0.0635 -0.4257
  509DMC     C6 3054   1.576   1.250   2.423  0.0413 -0.2386 -0.4365
  510DMC     O1 3055   2.697   1.318   2.498  0.3922 -0.2126  0.7583
  510DMC     C2 3056   2.601   1.253   2.529  0.1329 -0.0830  0.2590
  510DMC     O3 3057   2.568   1.215   2.654  0.2055  0.0983  0.3346
  510DMC     O4 3058   2.516   1.193   2.445  0.0869 -0.0866  0.3079
  510DMC     C5 3059   2.651   1.264   2.757  0.3992 -0.3499  0.3937
  510DMC     C6 3060   2.565   1.206   2.313 -0.3937  0.1183  0.1450
  511DMC     O1 3061   2.801   2.512   3.857 -0.0177 -0.0242 -0.3712
  511DMC     C2 3062   2.785   2.486   3.741  0.1000 -0.5574 -0.2693
  511DMC     O3 3063   2.710   2.555   3.654  0.3217  0.1862  0.1242
  511DMC     O4 3064   2.881   2.421   3.671  0.1975 -0.2400 -0.4317
  511DMC     C5 3065   2.672   2.685   3.692 -0.0140  0.1319 -0.0204
  511DMC     C6 3066   3.004   2.404   3.737  0.1368  0.7959 -0.0369
  512DMC     O1 3067   3.143   0.858   3.818  0.3936  0.3842  0.0936
  512DMC     C2 3068   3.250   0.809   3.797  0.0037 -0.4900  0.0929
  512DMC     O3 3069   3.358   0.833   3.874  0.0325  0.2892 -0.1828
  512DMC     O4 3070   3.278   0.743   3.683  0.1794 -0.5832  0.1887
  512DMC     C5 3071   3.336   0.928   3.975  0.1068 -0.0320  0.1371
  512DMC     C6 3072   3.166   0.739   3.597  0.0923 -0.4386  0.2937
  513DMC     O1 3073   1.568   0.154   2.909  0.1151  0.6566  0.1396
  513DMC     C2 3074   1.580   0.079   3.002 -0.3492  0.2611 -0.1114
  513DMC     O3 3075   1.517   3.941   3.020 -0.0525  0.1732  0.3652
  513DMC     O4 3076   1.648   0.112   3.114 -0.1181 -0.4224 -0.0477
  513DMC     C5 3077   1.422   3.894   2.927 -0.1114 -0.2335  0.6243
  513DMC     C6 3078   1.688   0.247   3.120 -0.3089 -0.3706  0.0664
  514DMC     O1 3079   1.914   1.429   3.543  0.1915  0.0332 -0.8604
  514DMC     C2 3080   1.797   1.453   3.531  0.0113 -0.1718  0.3130
  514DMC     O3 3081   1.704   1.359   3.504  0.0877 -0.1918  0.1144
  514DMC     O4 3082   1.738   1.560   3.586 -0.2865  0.0721 -0.4578
  514DMC     C5 3083   1.757   1.231   3.484 -0.0907 -0.2330 -0.1020
  514DMC     C6 3084   1.827   1.660   3.631 -0.5567  0.1134 -0.0110
  515DMC     O1 3085   3.366   1.545   3.893  0.0704 -0.1427  0.4741
  515DMC     C2 3086   3.477   1.586   3.872  0.0188  0.3011  1.0335
  515DMC     O3 3087   3.585   1.517   3.911  0.1132 -0.3332 -0.2889
  515DMC     O4 3088   3.512   1.714   3.847  0.2252  0.0505 -0.0337
  515DMC     C5 3089   3.536   1.404   0.002 -0.3671  0.0626  0.0284
  515DMC     C6 3090   3.402   1.795   3.813 -0.1001 -0.3182  0.1162
  516DMC     O1 3091   3.911   3.148   3.659 -0.1058 -0.3513 -0.6131
  516DMC     C2 3092   3.812   3.082   3.677 -0.0735 -0.0985  0.5092
  516DMC     O3 3093   3.793   2.963   3.618  0.2683  0.3225 -0.4628
  516DMC     O4 3094   3.701   3.120   3.744  0.0274  0.3016  0.4518
  516DMC     C5 3095   3.896   2.932   3.527  0.1425  0.3718 -0.6230
  516DMC     C6 3096   3.717   3.225   3.837  0.2275  0.4368  0.2668
  517DMC     O1 3097   1.046   0.384   0.455  0.3837  0.1263 -0.3485
  517DMC     C2 3098   0.992   0.485   0.419  0.1868  0.1418 -0.0051
  517DMC     O3 3099   0.974   0.591   0.500  0.1704  0.0134  0.1594
  517DMC     O4 3100   0.943   0.500   0.295 -0.5792 -0.3244  0.2347
  517DMC     C5 3101   1.023   0.556   0.628  0.2416 -0.2046  0.0719
  517DMC     C6 3102   0.980   0.399   0.203  0.0590  0.0048  0.1202
   3.97982   3.97882   3.97781
