Electrolyte system
 3102
    1_EC     O1    1   3.062   0.481   0.870 -0.0064 -0.0049  0.4842
    1_EC     C2    2   3.088   0.489   0.753  0.0895 -0.2775  0.4858
    1_EC     O3    3   3.179   0.405   0.695 -0.1128 -0.0578 -0.1588
    1_EC     O4    4   3.116   0.608   0.695 -0.4128 -0.1291  0.5421
    1_EC     C5    5   3.172   0.425   0.554 -0.3769  0.1473 -0.1178
    1_EC     C6    6   3.127   0.570   0.557  0.2226  0.3240  0.4596
    2_EC     O1    7   2.452   2.074   0.003  0.6327 -0.4118  0.5167
    2_EC     C2    8   2.568   2.050   3.964  0.7656  0.4518  0.1105
    2_EC     O3    9   2.619   1.972   3.865  0.0797 -0.0660  0.1535
    2_EC     O4   10   2.652   2.016   0.088  0.6186 -0.1924  0.0202
    2_EC     C5   11   2.756   2.012   3.857 -0.0351  0.2885 -0.1214
    2_EC     C6   12   2.778   2.042   0.027  0.3846  0.4084 -0.2087
    3_EC     O1   13   0.104   1.256   1.071 -0.2282  0.3836  0.2461
    3_EC     C2   14   0.132   1.180   0.983 -0.1009 -0.0172  0.6255
    3_EC     O3   15   0.176   1.053   1.005  0.1320 -0.0353  0.0707
    3_EC     O4   16   0.066   1.168   0.865  0.4066  0.7564  0.2468
    3_EC     C5   17   0.228   1.012   0.878 -0.2894  0.0812 -0.1411
    3_EC     C6   18   0.159   1.103   0.778 -0.4459 -0.0078 -0.1150
    4_EC     O1   19   3.135   1.178   3.568  0.2436  0.0587  0.5535
    4_EC     C2   20   3.052   1.198   3.483  0.5597  0.1176  0.2567
    4_EC     O3   21   2.959   1.296   3.495  0.1122 -0.2915  0.1560
    4_EC     O4   22   3.073   1.184   3.349 -0.0203  0.5491  0.1191
    4_EC     C5   23   2.880   1.307   3.376  0.4676 -0.1657 -0.0694
    4_EC     C6   24   2.940   1.192   3.297 -0.0903 -0.5747  0.0972
    5_EC     O1   25   2.926   2.621   0.076 -0.0191 -0.3248 -0.5675
    5_EC     C2   26   3.014   2.544   0.103 -0.1680 -0.1816  0.3532
    5_EC     O3   27   3.101   2.559   0.207  0.5066  0.4887 -0.2932
    5_EC     O4   28   3.070   2.458   0.013 -0.1022  0.1852  0.0421
    5_EC     C5   29   3.180   2.440   0.212 -0.2246  0.0066 -0.1304
    5_EC     C6   30   3.122   2.356   0.098  0.2295  0.0094 -0.3661
    6_EC     O1   31   2.785   0.989   0.149 -0.0820  0.2005  0.0204
    6_EC     C2   32   2.781   1.099   0.196 -0.4700  0.0165  0.4224
    6_EC     O3   33   2.866   1.150   0.290 -0.5340  0.1373  0.4146
    6_EC     O4   34   2.743   1.202   0.116 -0.2154 -0.2015  0.0181
    6_EC     C5   35   2.808   1.277   0.319 -0.0945  0.4180  0.0602
    6_EC     C6   36   2.739   1.323   0.192 -0.4724 -0.2202  0.0338
    7_EC     O1   37   0.702   3.957   0.913 -0.5572 -0.0871  0.0021
    7_EC     C2   38   0.593   3.974   0.961 -0.5492 -0.0930  0.0221
    7_EC     O3   39   0.506   0.081   0.901  0.0833  0.4664 -0.1055
    7_EC     O4   40   0.583   0.030   1.092  0.3615 -0.1723  0.1208
    7_EC     C5   41   0.387   0.066   0.979  0.1510  0.2462 -0.0417
    7_EC     C6   42   0.442   0.039   1.118  0.3025 -0.2063 -0.1871
    8_EC     O1   43   1.807   2.222   1.447 -0.0968 -0.5304 -0.1074
    8_EC     C2   44   1.857   2.212   1.556 -0.5882  0.0693  0.1767
    8_EC     O3   45   1.793   2.168   1.667 -0.0996 -0.0559  0.4116
    8_EC     O4   46   1.980   2.158   1.575 -0.4539  0.3620  0.1491
    8_EC     C5   47   1.879   2.197   1.778 -0.1998 -0.0976  0.5015
    8_EC     C6   48   2.015   2.176   1.712 -0.3521 -0.1248  0.1908
    9_EC     O1   49   2.056   1.793   1.410 -0.2155  0.5582 -0.7098
    9_EC     C2   50   1.964   1.821   1.481 -0.1851 -0.7157 -0.1400
    9_EC     O3   51   1.867   1.907   1.437  0.1320 -0.3450 -0.1214
    9_EC     O4   52   1.972   1.848   1.614 -0.2598 -0.1427 -0.2464
    9_EC     C5   53   1.762   1.872   1.528  0.0592  0.2276  0.0170
    9_EC     C6   54   1.836   1.843   1.657 -0.1743 -0.5276 -0.0128
   10_EC     O1   55   1.375   1.257   3.257 -0.2309 -0.4683 -0.5263
   10_EC     C2   56   1.427   1.301   3.159  0.1132  0.1969 -0.0534
   10_EC     O3   57   1.559   1.325   3.135  0.3533 -0.7262  0.3164
   10_EC     O4   58   1.361   1.352   3.051  0.3352 -0.4194 -0.4864
   10_EC     C5   59   1.578   1.343   2.994  0.1528  0.4766  0.4327
   10_EC     C6   60   1.453   1.427   2.971 -0.0209 -0.0433 -0.5504
   11_EC     O1   61   2.255   3.096   2.046  0.2178 -0.1700  0.1115
   11_EC     C2   62   2.150   3.150   2.065  0.1464 -0.2506 -0.0496
   11_EC     O3   63   2.120   3.220   2.177 -0.4698 -0.3074 -0.1773
   11_EC     O4   64   2.030   3.099   2.028 -0.1390  0.4484 -0.0981
   11_EC     C5   65   1.994   3.284   2.154 -0.3132  0.0413 -0.0745
   11_EC     C6   66   1.936   3.207   2.037 -0.2274  0.3923 -0.3487
   12_EC     O1   67   2.550   1.114   0.376  0.6426 -0.6136  0.0727
   12_EC     C2   68   2.491   1.010   0.365 -0.3830 -0.0677  0.2443
   12_EC     O3   69   2.380   0.973   0.435 -0.5803  0.1480  0.0444
   12_EC     O4   70   2.471   0.954   0.243 -0.3846  0.0358  0.1976
   12_EC     C5   71   2.367   0.832   0.412  0.6349  0.0266  0.0248
   12_EC     C6   72   2.425   0.822   0.271  0.2781 -0.2626 -0.1016
   13_EC     O1   73   3.837   0.678   0.215  0.3182  0.2738 -0.2164
   13_EC     C2   74   3.876   0.672   0.328  0.1149  0.1230 -0.1528
   13_EC     O3   75   3.961   0.762   0.386  0.2158  0.0344 -0.1629
   13_EC     O4   76   3.887   0.566   0.412 -0.2962  0.1303 -0.0895
   13_EC     C5   77   3.938   0.756   0.527 -0.0283  0.2599 -0.1924
   13_EC     C6   78   3.960   0.606   0.529 -0.1546  0.2417 -0.2156
   14_EC     O1   79   0.111   0.211   1.455  0.9435 -0.4115 -0.1029
   14_EC     C2   80   0.074   0.104   1.417 -0.2092 -0.0135 -0.1573
   14_EC     O3   81   3.938   0.043   1.454 -0.1496 -0.2282 -0.3229
   14_EC     O4   82   0.100   0.045   1.297  0.2007 -0.2151  0.0280
   14_EC     C5   83   3.949   3.882   1.425  0.2365 -0.2147 -0.2491
   14_EC     C6   84   0.081   3.884   1.322  0.2906 -0.2673 -0.1909
   15_EC     O1   85   0.984   0.710   2.127  0.1077 -0.3082 -0.1381
   15_EC     C2   86   0.936   0.771   2.035  0.0933 -0.3974 -0.1905
   15_EC     O3   87   0.903   0.713   1.917 -0.5343  0.1242 -0.2796
   15_EC     O4   88   0.966   0.902   2.010 -0.3517 -0.1981  0.2874
   15_EC     C5   89   0.823   0.814   1.855 -0.1974  0.5663 -0.0008
   15_EC     C6   90   0.860   0.944   1.924 -0.2557  0.3547  0.4380
   16_EC     O1   91   2.793   1.132   1.359 -0.3489  0.2640 -0.2303
   16_EC     C2   92   2.787   1.250   1.337  0.2895  0.2659 -0.3961
   16_EC     O3   93   2.810   1.340   1.436 -0.6093  0.0260  0.0349
   16_EC     O4   94   2.672   1.298   1.283 -0.3157  0.0545  0.6737
   16_EC     C5   95   2.804   1.466   1.368  0.3129 -0.0321 -0.1574
   16_EC     C6   96   2.691   1.439   1.270  0.6211 -0.1561 -0.4844
   17_EC     O1   97   2.469   0.678   3.900  0.2379  0.0550  0.9479
   17_EC     C2   98   2.583   0.714   3.900  0.1832  0.2281  0.4201
   17_EC     O3   99   2.645   0.782   3.799 -0.0730  0.1174  0.1867
   17_EC     O4  100   2.678   0.637   3.960  0.0891  0.3431  0.7177
   17_EC     C5  101   2.769   0.826   3.856  0.2142 -0.6479  0.1692
   17_EC     C6  102   2.803   0.700   3.933  0.4143 -0.3751  0.5273
   18_EC     O1  103   3.068   3.737   3.065 -0.3772  0.2439  0.3650
   18_EC     C2  104   3.101   3.726   3.180 -0.2969 -0.0952  0.3132
   18_EC     O3  105   3.216   3.666   3.219  0.0996  0.3021 -0.2384
   18_EC     O4  106   3.063   3.810   3.281 -0.0660  0.3647  0.0222
   18_EC     C5  107   3.189   3.637   3.356  0.5443 -0.1329 -0.2413
   18_EC     C6  108   3.092   3.743   3.404  0.6523  0.0071 -0.3300
   19_EC     O1  109   1.584   0.410   1.956  0.0932  0.1729  0.8026
   19_EC     C2  110   1.600   0.514   2.013 -0.4458  0.1779  0.9514
   19_EC     O3  111   1.556   0.636   1.971 -0.0965  0.0765  0.2796
   19_EC     O4  112   1.691   0.527   2.114 -0.1136  0.1500  0.6572
   19_EC     C5  113   1.633   0.733   2.043  0.2921  0.2186 -0.3194
   19_EC     C6  114   1.666   0.656   2.170 -0.6009  0.3478  0.0005
   20_EC     O1  115   2.175   3.378   1.833  0.2276  0.7334 -0.3871
   20_EC     C2  116   2.181   3.486   1.885  0.0430  0.3966  0.3503
   20_EC     O3  117   2.229   3.599   1.825  0.4971  0.0517  0.0628
   20_EC     O4  118   2.116   3.516   2.001  0.3937 -0.5946  0.8158
   20_EC     C5  119   2.183   3.709   1.903  0.5797 -0.0566  0.2687
   20_EC     C6  120   2.151   3.650   2.039  0.3420 -0.3661  0.0797
   21_EC     O1  121   0.380   0.581   3.447  0.1328  0.6451 -0.2543
   21_EC     C2  122   0.497   0.568   3.467 -0.0032 -0.1359  0.0917
   21_EC     O3  123   0.587   0.555   3.366 -0.1844 -0.5439 -0.0172
   21_EC     O4  124   0.561   0.623   3.574 -0.4444  0.0935  0.2406
   21_EC     C5  125   0.703   0.503   3.433 -0.1602 -0.3430  0.0951
   21_EC     C6  126   0.689   0.558   3.574 -0.4642  0.0502 -0.0849
   22_EC     O1  127   0.975   0.941   3.874 -0.0605 -0.0847 -0.5237
   22_EC     C2  128   0.901   0.993   3.795 -0.3126  0.3137 -0.0322
   22_EC     O3  129   0.829   0.923   3.703 -0.5146  0.0481  0.3303
   22_EC     O4  130   0.805   1.084   3.828 -0.2575  0.4686 -0.2951
   22_EC     C5  131   0.795   1.023   3.608  0.3853  0.1897  0.1520
   22_EC     C6  132   0.754   1.134   3.704 -0.7414  0.1244 -0.2370
   23_EC     O1  133   2.903   0.039   2.141  0.2822 -0.3747 -0.0963
   23_EC     C2  134   3.006   0.030   2.080  0.0048 -1.0539 -0.4865
   23_EC     O3  135   3.035   0.101   1.968  0.3054  0.1468  0.3301
   23_EC     O4  136   3.128   0.006   2.134  0.0057 -0.2984 -0.1300
   23_EC     C5  137   3.172   0.080   1.933  0.2468 -0.3211  0.3798
   23_EC     C6  138   3.225   3.958   2.033  0.0587 -0.7606  0.0404
   24_EC     O1  139   3.599   1.514   2.242  0.2727  0.0200  0.2525
   24_EC     C2  140   3.608   1.626   2.199 -0.2215 -0.2951 -0.7178
   24_EC     O3  141   3.731   1.681   2.178 -0.3733  0.1593 -0.4479
   24_EC     O4  142   3.524   1.729   2.227  0.2246 -0.1238  0.0311
   24_EC     C5  143   3.714   1.806   2.112  0.4931  0.7077  0.3514
   24_EC     C6  144   3.573   1.842   2.155  0.1299 -0.1610 -0.0921
   25_EC     O1  145   3.141   3.818   3.722 -0.1728  0.0845  0.3806
   25_EC     C2  146   3.247   3.809   3.778  0.0328  0.1058  0.0026
   25_EC     O3  147   3.274   3.704   3.859  0.2897 -0.2882 -0.5876
   25_EC     O4  148   3.316   3.913   3.833 -0.3484  0.4107 -0.0855
   25_EC     C5  149   3.414   3.721   3.886  0.0816 -0.1175  0.4341
   25_EC     C6  150   3.444   3.870   3.880 -0.4031 -0.0468 -0.3460
   26_EC     O1  151   0.190   3.830   0.313  0.3850 -0.2296 -0.0963
   26_EC     C2  152   0.215   3.923   0.385  0.1912  0.0034 -0.3267
   26_EC     O3  153   0.135   0.052   0.405 -0.2794 -0.2761 -0.7023
   26_EC     O4  154   0.295   3.910   0.494 -0.2238  0.0685 -0.0132
   26_EC     C5  155   0.215   0.150   0.471  0.0695 -0.6786 -0.5254
   26_EC     C6  156   0.330   0.067   0.526 -0.1829 -0.1379  0.8516
   27_EC     O1  157   0.387   2.859   1.986 -0.6276 -0.2578  0.0023
   27_EC     C2  158   0.435   2.761   1.936  0.0467 -0.2252  0.5702
   27_EC     O3  159   0.529   2.758   1.838 -0.0539  0.1271  0.4646
   27_EC     O4  160   0.405   2.631   1.966 -0.6101 -0.2520 -0.1820
   27_EC     C5  161   0.572   2.624   1.817  0.4657  0.3492  0.0916
   27_EC     C6  162   0.521   2.552   1.940 -0.2581  0.2767 -0.2429
   28_EC     O1  163   2.260   2.768   1.394  0.3207  0.1588  0.1400
   28_EC     C2  164   2.305   2.686   1.469 -0.3590 -0.3434  0.0026
   28_EC     O3  165   2.436   2.650   1.464 -0.5353 -0.9574 -0.3690
   28_EC     O4  166   2.257   2.635   1.586  0.2836 -0.3140  0.2794
   28_EC     C5  167   2.453   2.522   1.526 -0.0860 -0.2420  1.0247
   28_EC     C6  168   2.328   2.513   1.613 -0.3617 -0.6266  0.5935
   29_EC     O1  169   3.561   2.547   0.565 -0.0837  0.2415  0.1812
   29_EC     C2  170   3.449   2.535   0.608 -0.0656  0.5477  0.3082
   29_EC     O3  171   3.340   2.587   0.546 -0.0939  0.2642  0.1222
   29_EC     O4  172   3.403   2.416   0.653 -0.0027  0.3392 -0.1768
   29_EC     C5  173   3.230   2.557   0.633 -0.1531  0.0873 -0.0117
   29_EC     C6  174   3.270   2.428   0.703  0.0938  0.2283  0.1113
   30_EC     O1  175   0.408   0.580   2.830 -0.0473 -0.5254  0.1692
   30_EC     C2  176   0.350   0.646   2.912 -0.5069 -0.5000 -0.1731
   30_EC     O3  177   0.214   0.643   2.912 -0.5119 -0.3037 -0.0831
   30_EC     O4  178   0.374   0.627   3.044 -0.0654 -0.1466 -0.1995
   30_EC     C5  179   0.161   0.714   3.025 -0.0931 -0.1754  0.0348
   30_EC     C6  180   0.276   0.696   3.122 -0.0791 -0.3727 -0.0177
   31_EC     O1  181   1.042   3.874   2.126  0.2021 -0.7093  0.7573
   31_EC     C2  182   1.037   3.960   2.209 -0.4437 -0.4395  0.4481
   31_EC     O3  183   0.940   3.964   2.304 -0.3469  0.4034  0.5211
   31_EC     O4  184   1.145   0.027   2.278 -0.1671  0.2644 -0.4363
   31_EC     C5  185   0.951   0.112   2.370 -0.1333  0.5191  0.2650
   31_EC     C6  186   1.097   0.145   2.344 -0.0971  0.0953 -0.0835
   32_EC     O1  187   2.343   3.238   0.775 -0.1752 -0.5406 -0.2305
   32_EC     C2  188   2.226   3.263   0.768 -0.0111  0.3590  0.0509
   32_EC     O3  189   2.146   3.242   0.876  0.0097 -0.5038 -0.0982
   32_EC     O4  190   2.178   3.378   0.713 -0.6570  0.0360 -0.0651
   32_EC     C5  191   2.015   3.278   0.832  0.0098  0.3405  0.5702
   32_EC     C6  192   2.035   3.374   0.716 -0.6553  0.2104  0.3439
   33_EC     O1  193   1.411   2.002   0.548  0.7014 -0.6387  0.1904
   33_EC     C2  194   1.311   1.938   0.533  0.3077  0.0004  0.0250
   33_EC     O3  195   1.293   1.836   0.445 -0.4230  0.0847  0.0727
   33_EC     O4  196   1.244   1.881   0.637  0.1853  0.2267  0.0706
   33_EC     C5  197   1.152   1.809   0.442 -0.3545 -0.3199  0.3457
   33_EC     C6  198   1.116   1.847   0.584  0.0828  0.2341  0.3134
   34_EC     O1  199   1.422   1.759   3.050 -0.3000 -0.8362  1.0260
   34_EC     C2  200   1.350   1.831   3.114 -0.3057  0.3320 -0.2605
   34_EC     O3  201   1.319   1.957   3.072 -0.1277  0.4629  0.0009
   34_EC     O4  202   1.244   1.793   3.191  0.1129  0.0189  0.1610
   34_EC     C5  203   1.299   2.019   3.199  0.1149  0.0578  0.2377
   34_EC     C6  204   1.216   1.911   3.267 -0.4017  0.1549 -0.2357
   35_EC     O1  205   2.825   3.164   3.814  0.0559  0.1211 -0.1186
   35_EC     C2  206   2.858   3.078   3.891 -0.0195  0.4749  0.3113
   35_EC     O3  207   2.755   3.011   3.950 -0.1760  0.0020 -0.4854
   35_EC     O4  208   2.952   3.099   0.010  0.2161  0.0433  0.1803
   35_EC     C5  209   2.811   2.930   0.076 -0.1331 -0.0415 -0.5426
   35_EC     C6  210   2.957   2.973   0.077 -0.0964 -0.1709 -0.1926
   36_EC     O1  211   3.647   2.868   0.312  0.4009 -0.6766  0.6373
   36_EC     C2  212   3.540   2.873   0.364  0.1747  0.4322  0.0982
   36_EC     O3  213   3.418   2.852   0.307 -0.0998  0.3421  0.7012
   36_EC     O4  214   3.520   2.921   0.490  0.5648 -0.4797  0.5172
   36_EC     C5  215   3.326   2.940   0.371 -0.0415  0.4454  0.6431
   36_EC     C6  216   3.379   2.915   0.511  0.5201 -0.1606  0.3262
   37_EC     O1  217   0.607   3.840   3.028 -0.2958 -0.0180  0.6014
   37_EC     C2  218   0.695   3.885   3.095  0.5873 -0.2939 -0.3469
   37_EC     O3  219   0.743   0.032   3.076 -0.0756  0.0650  0.2739
   37_EC     O4  220   0.805   3.812   3.128  0.5613 -0.3956 -0.4865
   37_EC     C5  221   0.844   0.062   3.173  0.0150  0.5521  0.0367
   37_EC     C6  222   0.871   3.899   3.221 -0.4182  0.3086 -0.4343
   38_EC     O1  223   0.151   0.302   0.805 -0.2381  0.3223  0.0607
   38_EC     C2  224   0.072   0.264   0.887 -0.4807  0.5543 -0.0610
   38_EC     O3  225   0.050   0.133   0.918  0.1334  0.3772 -0.3376
   38_EC     O4  226   0.068   0.328   1.006 -0.1458  0.2326  0.1265
   38_EC     C5  227   3.936   0.131   1.027  0.1350  0.1630 -0.3404
   38_EC     C6  228   3.936   0.274   1.077 -0.0897  0.0241  0.0579
   39_EC     O1  229   2.997   3.711   1.952  0.8094  0.5660  0.2854
   39_EC     C2  230   3.036   3.620   2.021 -0.2545 -0.1552 -0.0370
   39_EC     O3  231   3.094   3.633   2.143  0.3273 -0.0998 -0.3167
   39_EC     O4  232   3.088   3.504   1.974  0.1553  0.0448 -0.0791
   39_EC     C5  233   3.076   3.505   2.204  0.1380  0.0895  0.0300
   39_EC     C6  234   3.095   3.413   2.084 -0.2553  0.0786 -0.0250
   40_EC     O1  235   1.521   1.283   0.887 -0.1560 -0.4155  0.0055
   40_EC     C2  236   1.534   1.222   0.785 -0.4381 -0.0221 -0.2662
   40_EC     O3  237   1.550   1.276   0.661 -0.1269 -0.1908 -0.3014
   40_EC     O4  238   1.557   1.089   0.775 -0.2106  0.0098 -0.1738
   40_EC     C5  239   1.517   1.176   0.564 -0.3198  0.0383 -0.4745
   40_EC     C6  240   1.566   1.052   0.637 -0.2069  0.2248 -0.2311
   41_EC     O1  241   3.719   1.797   0.125 -0.7345  0.3533  0.2477
   41_EC     C2  242   3.692   1.776   0.241  0.5166  0.3754  0.5524
   41_EC     O3  243   3.707   1.655   0.300  0.2719 -0.0923 -0.3260
   41_EC     O4  244   3.578   1.827   0.294  0.0108  0.0331 -0.1955
   41_EC     C5  245   3.671   1.666   0.438 -0.2807  0.4023 -0.5070
   41_EC     C6  246   3.574   1.783   0.430 -0.2736  0.4406 -0.0715
   42_EC     O1  247   0.450   1.568   3.189  0.7688  0.2984 -0.4663
   42_EC     C2  248   0.471   1.656   3.110  0.2055  0.4664 -0.4362
   42_EC     O3  249   0.586   1.730   3.114  0.1701  0.4915  0.1571
   42_EC     O4  250   0.373   1.741   3.071 -0.1522  0.5368  0.5850
   42_EC     C5  251   0.580   1.790   2.985 -0.1559 -0.1666 -0.1407
   42_EC     C6  252   0.432   1.819   2.967 -0.1821 -0.2156 -0.0056
   43_EC     O1  253   0.511   3.296   0.517 -0.1335 -0.0533 -0.3298
   43_EC     C2  254   0.616   3.348   0.493 -0.1759  0.2326  0.0889
   43_EC     O3  255   0.721   3.345   0.580  0.0743 -0.2431 -0.2252
   43_EC     O4  256   0.636   3.452   0.408 -0.2583  0.4551  0.3432
   43_EC     C5  257   0.828   3.420   0.524  0.4874 -0.8631 -0.2816
   43_EC     C6  258   0.777   3.450   0.384 -0.3020 -0.1650  0.1424
   44_EC     O1  259   2.959   1.382   2.334  0.2163 -0.1608  0.1844
   44_EC     C2  260   3.002   1.300   2.257 -0.2728  0.1029 -0.3861
   44_EC     O3  261   2.946   1.250   2.144 -0.0608  0.0451 -0.4667
   44_EC     O4  262   3.106   1.219   2.292 -0.5095  0.0634  0.2402
   44_EC     C5  263   3.050   1.185   2.071  0.6158  0.0213  0.4954
   44_EC     C6  264   3.166   1.179   2.169  0.4720  0.1640  0.6754
   45_EC     O1  265   2.058   2.530   1.834  0.0865  0.0621  0.0524
   45_EC     C2  266   1.993   2.564   1.739  0.0095 -0.4794 -0.0889
   45_EC     O3  267   2.001   2.503   1.617  0.2833 -0.3438 -0.1381
   45_EC     O4  268   1.872   2.625   1.752  0.2142 -0.0749 -0.0880
   45_EC     C5  269   1.932   2.592   1.529  0.2010  0.3439  0.6092
   45_EC     C6  270   1.851   2.681   1.622 -0.1460  0.4631  0.1970
   46_EC     O1  271   1.525   2.637   3.818  0.2465 -0.0186 -0.1069
   46_EC     C2  272   1.575   2.535   3.856 -0.3944 -0.3145 -0.0503
   46_EC     O3  273   1.530   2.411   3.825 -0.0833 -0.2670 -0.6992
   46_EC     O4  274   1.645   2.535   3.973  0.3139  0.0131 -0.4627
   46_EC     C5  275   1.605   2.322   3.909 -0.1483  0.5178  0.2101
   46_EC     C6  276   1.714   2.410   3.967  0.3386 -0.0029  0.0928
   47_EC     O1  277   0.883   3.080   0.455 -0.0389 -0.2340  0.6980
   47_EC     C2  278   0.982   3.026   0.496  0.3605  0.0786  0.1621
   47_EC     O3  279   1.101   3.085   0.468  0.1933  0.3454  0.0127
   47_EC     O4  280   1.000   3.013   0.630  0.1933  0.2544  0.2024
   47_EC     C5  281   1.197   3.000   0.531 -0.1244 -0.0280 -0.0027
   47_EC     C6  282   1.125   2.947   0.654 -0.1103 -0.4684 -0.1846
   48_EC     O1  283   0.095   3.853   3.069  0.1510  0.0473  0.0395
   48_EC     C2  284   3.971   3.800   3.041 -0.2115  0.7869 -0.0280
   48_EC     O3  285   3.850   3.861   3.031 -0.6818 -0.1431 -0.1193
   48_EC     O4  286   3.954   3.687   2.968  0.1637  0.4038  0.4750
   48_EC     C5  287   3.744   3.766   3.019 -0.8195 -0.0525  0.3571
   48_EC     C6  288   3.823   3.638   3.000  0.0105  0.5052  0.0096
   49_EC     O1  289   0.370   1.490   1.852  0.5033  0.0769 -1.0125
   49_EC     C2  290   0.385   1.374   1.826 -0.0548 -0.2846  0.1986
   49_EC     O3  291   0.287   1.294   1.774  0.1403  0.0040 -0.6351
   49_EC     O4  292   0.465   1.292   1.899  0.7306  0.0482 -0.2813
   49_EC     C5  293   0.364   1.185   1.723  0.3501 -0.1570  0.0050
   49_EC     C6  294   0.487   1.181   1.812  0.3431 -0.2575  0.0108
   50_EC     O1  295   0.983   2.894   3.783 -0.2389 -0.3011 -0.5200
   50_EC     C2  296   0.996   2.887   3.664  0.1927 -0.2588 -0.4794
   50_EC     O3  297   1.076   2.964   3.585  0.3348  0.7346  0.6176
   50_EC     O4  298   0.941   2.787   3.589  0.2561 -0.5351 -0.1573
   50_EC     C5  299   1.015   2.956   3.456  0.7815 -0.1845  0.4598
   50_EC     C6  300   0.964   2.813   3.450  0.8494 -0.1924  0.0013
   51_EC     O1  301   3.750   1.456   2.614 -0.2513 -0.3823  0.2016
   51_EC     C2  302   3.848   1.478   2.680 -0.2890  0.3358  0.0265
   51_EC     O3  303   3.964   1.531   2.634  0.1259 -0.3666  0.2563
   51_EC     O4  304   3.855   1.477   2.816 -0.3010 -0.2456  0.0259
   51_EC     C5  305   0.074   1.573   2.737  0.1299  0.1162  0.0598
   51_EC     C6  306   0.011   1.502   2.855 -0.1445 -0.4124 -0.4011
   52_EC     O1  307   1.578   3.853   3.556  0.3423 -0.2904  0.7790
   52_EC     C2  308   1.478   3.822   3.496  0.6843 -0.0136  0.0478
   52_EC     O3  309   1.454   3.837   3.363 -0.4563  0.1594  0.2617
   52_EC     O4  310   1.367   3.771   3.556  0.2673 -0.0583 -0.7563
   52_EC     C5  311   1.328   3.779   3.329 -0.0362 -0.5167 -0.1668
   52_EC     C6  312   1.259   3.793   3.464 -0.1322  0.0473 -0.2698
   53_EC     O1  313   2.965   1.727   0.024  0.0975 -0.2404  0.4836
   53_EC     C2  314   2.992   1.690   3.892  0.1714  0.1982  0.3504
   53_EC     O3  315   2.943   1.755   3.783  0.1332 -0.4050  0.0022
   53_EC     O4  316   3.106   1.625   3.855 -0.1393 -0.1914  0.0657
   53_EC     C5  317   2.943   1.645   3.691  0.0206 -0.3527 -0.0595
   53_EC     C6  318   3.076   1.580   3.723  0.2338  0.0549 -0.1051
   54_EC     O1  319   2.404   0.138   2.990  0.3828  0.0542 -0.6692
   54_EC     C2  320   2.456   0.076   3.079 -0.1625  0.0208 -0.3643
   54_EC     O3  321   2.420   0.088   3.209 -0.1085  0.1440 -0.3603
   54_EC     O4  322   2.590   0.052   3.082 -0.1758  0.0015  0.1243
   54_EC     C5  323   2.497   3.968   3.278 -0.4497  0.1831  0.0761
   54_EC     C6  324   2.623   3.950   3.195 -0.6384 -0.4770 -0.0772
   55_EC     O1  325   2.098   3.660   2.643  0.1160 -0.0788  0.0819
   55_EC     C2  326   2.038   3.659   2.540 -0.4278  0.1742  0.3952
   55_EC     O3  327   1.960   3.557   2.497  0.0543 -0.0015 -0.0716
   55_EC     O4  328   2.069   3.736   2.431 -0.3181  0.0112  0.3114
   55_EC     C5  329   1.876   3.618   2.398  0.1034 -0.2155 -0.2490
   55_EC     C6  330   1.975   3.709   2.327  0.0757 -0.0177 -0.0387
   56_EC     O1  331   1.518   2.604   0.637 -0.0841 -0.1739 -0.2757
   56_EC     C2  332   1.507   2.502   0.576  0.0481  0.0229 -0.6362
   56_EC     O3  333   1.501   2.502   0.440 -0.3941  0.1963 -0.6168
   56_EC     O4  334   1.544   2.378   0.620 -0.1256  0.1160 -0.2298
   56_EC     C5  335   1.500   2.365   0.398 -0.3038 -0.0719  0.2361
   56_EC     C6  336   1.587   2.303   0.506  0.2707  0.1431 -0.0980
   57_EC     O1  337   0.971   1.882   0.115 -0.8316  0.0804 -0.1592
   57_EC     C2  338   0.978   1.788   0.041 -0.0071 -0.2751  0.3469
   57_EC     O3  339   0.899   1.678   0.032 -0.1744 -0.1195 -0.1270
   57_EC     O4  340   1.070   1.795   3.919 -0.8281  0.2121 -0.3908
   57_EC     C5  341   0.930   1.626   3.880 -0.4032  0.0194 -0.2379
   57_EC     C6  342   1.074   1.667   3.855 -0.4730  0.2005 -0.3464
   58_EC     O1  343   1.305   2.617   3.517 -0.5351  0.2349  0.1991
   58_EC     C2  344   1.334   2.718   3.574  0.1692  0.2300 -0.1498
   58_EC     O3  345   1.401   2.823   3.517  0.0895  0.4508  0.1583
   58_EC     O4  346   1.246   2.774   3.662  0.2528  0.2028 -0.0483
   58_EC     C5  347   1.422   2.915   3.624 -0.0622  0.6473  0.0210
   58_EC     C6  348   1.316   2.881   3.726  0.5020 -0.1904  0.3408
   59_EC     O1  349   1.382   3.075   0.926 -0.2335 -0.0203  0.4779
   59_EC     C2  350   1.354   2.958   0.931 -0.0436 -0.0765  0.2578
   59_EC     O3  351   1.224   2.919   0.924 -0.1612  0.2774  0.4009
   59_EC     O4  352   1.414   2.862   0.856 -0.2637  0.2662 -0.3755
   59_EC     C5  353   1.223   2.778   0.951  0.0089  0.1254 -0.3637
   59_EC     C6  354   1.366   2.741   0.916  0.1407  0.2919  0.0045
   60_EC     O1  355   0.671   1.432   2.974 -0.3646 -0.1525  0.1737
   60_EC     C2  356   0.643   1.392   2.864  0.2366 -0.2968  0.0669
   60_EC     O3  357   0.555   1.458   2.783 -0.2897 -0.6529  0.3388
   60_EC     O4  358   0.732   1.333   2.780  0.1688 -0.3997  0.0668
   60_EC     C5  359   0.531   1.373   2.671 -0.5401 -0.1051 -0.0311
   60_EC     C6  360   0.647   1.274   2.681 -0.3706  0.1181  0.2163
   61_EC     O1  361   3.569   0.612   0.455  0.0075  0.0609  0.4346
   61_EC     C2  362   3.572   0.492   0.459 -0.0651  0.0316 -0.2118
   61_EC     O3  363   3.677   0.407   0.471  0.0997  0.2521 -0.0793
   61_EC     O4  364   3.457   0.420   0.443 -0.0612 -0.0056 -0.0755
   61_EC     C5  365   3.621   0.282   0.513  0.0810  0.2761 -0.0326
   61_EC     C6  366   3.495   0.283   0.428  0.0574  0.0193 -0.0024
   62_EC     O1  367   3.413   3.401   3.705 -0.0002 -0.1743 -0.0058
   62_EC     C2  368   3.400   3.282   3.701  0.1737 -0.1966  0.0785
   62_EC     O3  369   3.503   3.196   3.681  0.2008 -0.0970 -0.2153
   62_EC     O4  370   3.315   3.214   3.783  0.1247 -0.0153  0.1787
   62_EC     C5  371   3.446   3.067   3.658 -0.0677 -0.0611  0.2292
   62_EC     C6  372   3.316   3.079   3.736 -0.2505  0.0721 -0.0940
   63_EC     O1  373   2.334   1.170   3.652  0.8225 -0.3525 -0.0012
   63_EC     C2  374   2.315   1.092   3.740  0.1358 -0.2916 -0.0865
   63_EC     O3  375   2.277   0.962   3.722  0.0019 -0.2280 -0.2575
   63_EC     O4  376   2.398   1.082   3.848 -0.1106 -0.1795  0.1125
   63_EC     C5  377   2.235   0.921   3.852 -0.1526 -0.4923 -0.3903
   63_EC     C6  378   2.339   0.990   3.940 -0.7398  0.0170 -0.0860
   64_EC     O1  379   1.989   3.891   1.469 -0.2141  0.2161  0.0625
   64_EC     C2  380   1.909   3.860   1.385  0.2264 -0.2482 -0.1914
   64_EC     O3  381   1.787   3.814   1.425  0.1561 -0.3556 -0.5315
   64_EC     O4  382   1.932   3.788   1.272 -0.5011  0.1342 -0.5867
   64_EC     C5  383   1.709   3.817   1.305 -0.2153 -0.2414 -0.2881
   64_EC     C6  384   1.812   3.804   1.194 -0.4095  0.7907 -0.6010
   65_EC     O1  385   0.966   3.143   1.480  0.2121  0.2384  0.0386
   65_EC     C2  386   0.977   3.173   1.595  0.1844  0.1270  0.0704
   65_EC     O3  387   0.892   3.250   1.668 -0.1294 -0.1934  0.0398
   65_EC     O4  388   1.098   3.187   1.657  0.1866  0.0545  0.0823
   65_EC     C5  389   0.926   3.226   1.805 -0.4449 -0.7318  0.0264
   65_EC     C6  390   1.070   3.179   1.797 -0.3573 -0.4492 -0.0508
   66_EC     O1  391   1.238   1.932   1.188 -0.6373 -0.2459  0.3628
   66_EC     C2  392   1.216   1.979   1.080  0.2493  0.1681  0.3474
   66_EC     O3  393   1.093   2.023   1.042  0.2182 -0.3003 -0.1028
   66_EC     O4  394   1.300   2.066   1.018  0.0655  0.3187  0.3070
   66_EC     C5  395   1.100   2.047   0.901  0.0607  0.1101 -0.0437
   66_EC     C6  396   1.246   2.087   0.887  0.1135  0.0195  0.2371
   67_EC     O1  397   3.676   3.322   3.162 -0.0640  0.4446  0.2406
   67_EC     C2  398   3.723   3.213   3.176 -0.5506  0.1378 -0.4215
   67_EC     O3  399   3.811   3.148   3.095 -0.2338  0.0227  0.0042
   67_EC     O4  400   3.674   3.120   3.263 -0.0231 -0.0246 -0.2870
   67_EC     C5  401   3.841   3.018   3.146  0.4389  0.3648  0.4982
   67_EC     C6  402   3.780   3.028   3.285  0.0562  0.2141  0.3450
   68_EC     O1  403   0.055   1.018   1.714 -0.6860 -0.4706  0.2094
   68_EC     C2  404   3.955   0.930   1.700 -0.8931 -0.2610  0.0617
   68_EC     O3  405   3.965   0.819   1.779 -0.6198 -0.4797 -0.2785
   68_EC     O4  406   3.920   0.876   1.580  0.7352 -0.8542 -0.1749
   68_EC     C5  407   3.834   0.764   1.765 -0.4710 -0.7900 -0.4608
   68_EC     C6  408   3.805   0.802   1.621  0.1242 -0.0443 -0.3940
   69_EC     O1  409   3.392   2.656   0.907  0.0029 -0.1163 -0.1229
   69_EC     C2  410   3.325   2.756   0.909 -0.1450 -0.2114 -0.3547
   69_EC     O3  411   3.323   2.840   0.802  0.0311  0.0988 -0.1137
   69_EC     O4  412   3.297   2.831   1.018 -0.0361 -0.0283 -0.4511
   69_EC     C5  413   3.216   2.933   0.822  0.1791  0.2366  0.0468
   69_EC     C6  414   3.215   2.939   0.974 -0.0788  0.1472  0.0495
   70_EC     O1  415   3.199   1.146   2.612  0.0795 -0.0092  0.1134
   70_EC     C2  416   3.276   1.225   2.564 -0.1321  0.1370  0.0102
   70_EC     O3  417   3.384   1.273   2.632  0.4136 -0.0142 -0.7268
   70_EC     O4  418   3.314   1.217   2.433 -0.6186  0.1024 -0.1297
   70_EC     C5  419   3.433   1.380   2.552  0.9585  0.1480 -0.1816
   70_EC     C6  420   3.408   1.323   2.413 -0.8862  0.3741  0.0339
   71_EC     O1  421   3.305   2.498   1.978 -0.7836  0.0228  0.2754
   71_EC     C2  422   3.281   2.523   1.863 -0.2407  0.0891  0.1739
   71_EC     O3  423   3.351   2.619   1.798 -0.3610 -0.0919 -0.2246
   71_EC     O4  424   3.277   2.431   1.763  0.7903  0.1587  0.0582
   71_EC     C5  425   3.277   2.641   1.677 -0.2391  0.3751 -0.2172
   71_EC     C6  426   3.230   2.500   1.646  0.6776  0.0069  0.0141
   72_EC     O1  427   3.327   0.604   2.633  0.1075 -0.1362 -0.1644
   72_EC     C2  428   3.377   0.643   2.530  0.0560 -0.1063 -0.1784
   72_EC     O3  429   3.496   0.597   2.485  0.1207 -0.0872 -0.0289
   72_EC     O4  430   3.385   0.778   2.513 -0.1028  0.0014  0.5671
   72_EC     C5  431   3.534   0.685   2.378  0.4703  0.0150  0.1768
   72_EC     C6  432   3.443   0.806   2.386 -0.0163 -0.3702  0.5224
   73_EC     O1  433   0.615   1.337   3.454 -0.0332  0.1304 -0.2070
   73_EC     C2  434   0.497   1.327   3.435 -0.0274  0.0776 -0.2179
   73_EC     O3  435   0.444   1.237   3.349 -0.2526  0.3681 -0.3883
   73_EC     O4  436   0.415   1.341   3.543  0.2417 -0.1211  0.0127
   73_EC     C5  437   0.306   1.272   3.348 -0.2394  0.4138 -1.4685
   73_EC     C6  438   0.287   1.344   3.480  0.5998 -0.6430 -0.7561
   74_EC     O1  439   0.679   1.823   3.836  0.1124  0.2455 -0.1375
   74_EC     C2  440   0.720   1.912   3.767  0.1693  0.3501  0.0315
   74_EC     O3  441   0.641   2.011   3.718  0.3486  0.3811 -0.1963
   74_EC     O4  442   0.839   1.909   3.701 -0.0132 -0.3323 -0.2684
   74_EC     C5  443   0.737   2.115   3.696 -0.1995  0.8269 -0.5113
   74_EC     C6  444   0.858   2.038   3.644 -0.4585 -0.0664  0.1808
   75_EC     O1  445   1.800   3.651   1.700  0.2440 -0.2978  0.1133
   75_EC     C2  446   1.877   3.586   1.635 -0.6784 -0.3717 -0.9513
   75_EC     O3  447   1.859   3.451   1.628 -0.1964 -0.5253  0.3389
   75_EC     O4  448   2.011   3.606   1.641 -0.7580 -0.0260 -0.1124
   75_EC     C5  449   1.968   3.403   1.548 -0.7101 -0.1964 -0.5808
   75_EC     C6  450   2.068   3.517   1.545 -0.4544 -0.3801  0.3905
   76_EC     O1  451   2.959   3.192   3.459 -0.4462  0.0939 -0.0641
   76_EC     C2  452   2.974   3.292   3.524  0.5688  0.0097 -0.1581
   76_EC     O3  453   3.094   3.313   3.584  0.2601 -0.2822  0.5690
   76_EC     O4  454   2.929   3.416   3.490  0.1556 -0.0797  0.0535
   76_EC     C5  455   3.076   3.430   3.664  0.0627  0.0044  0.1073
   76_EC     C6  456   2.951   3.495   3.607  0.2839  0.1991 -0.1587
   77_EC     O1  457   2.930   1.214   1.657  0.1307  0.2073 -0.4540
   77_EC     C2  458   2.934   1.326   1.699 -0.1037  0.0382  0.0256
   77_EC     O3  459   2.974   1.353   1.826 -0.3361 -0.2928  0.1707
   77_EC     O4  460   2.945   1.440   1.626 -0.3040  0.1109  0.1069
   77_EC     C5  461   2.941   1.490   1.850  0.0937 -0.1364 -0.1147
   77_EC     C6  462   2.934   1.554   1.713 -0.3096  0.1608  0.0408
   78_EC     O1  463   1.307   0.840   2.354  0.2956 -0.0042  0.2137
   78_EC     C2  464   1.272   0.914   2.266 -0.4095 -0.3388  0.2075
   78_EC     O3  465   1.341   0.915   2.148 -0.2564 -0.2870  0.2978
   78_EC     O4  466   1.186   1.019   2.271 -0.0808 -0.0557 -0.0595
   78_EC     C5  467   1.276   1.001   2.054  0.7817  0.5307  0.3064
   78_EC     C6  468   1.212   1.097   2.153  0.2958  0.2775  0.2413
   79_EC     O1  469   3.581   2.985   0.931 -0.0923 -0.0841 -0.6060
   79_EC     C2  470   3.649   2.936   0.845  0.5635 -0.4361  0.1007
   79_EC     O3  471   3.708   2.814   0.864  0.2473 -0.4473  1.0461
   79_EC     O4  472   3.728   3.006   0.759 -0.4763  0.5026 -0.1125
   79_EC     C5  473   3.779   2.777   0.746  0.4375 -0.4255  1.1542
   79_EC     C6  474   3.774   2.907   0.667  0.2792 -0.4047  1.1993
   80_EC     O1  475   1.057   1.668   2.671  0.1820 -0.2559 -0.1168
   80_EC     C2  476   1.052   1.632   2.785  0.0108  0.2048  0.0231
   80_EC     O3  477   1.144   1.555   2.850 -0.1085  0.2793  0.2825
   80_EC     O4  478   0.941   1.638   2.863  0.2053 -0.2480  0.3398
   80_EC     C5  479   1.131   1.579   2.990  0.2547  0.3246  0.3082
   80_EC     C6  480   0.995   1.646   2.995  0.4212  0.6750  0.1991
   81_EC     O1  481   3.491   0.191   1.924 -0.8453 -0.2826 -0.0447
   81_EC     C2  482   3.533   0.114   1.842  0.2000  0.4455 -0.1997
   81_EC     O3  483   3.487   3.966   1.830  0.5928  0.2933 -0.1070
   81_EC     O4  484   3.666   0.113   1.814  0.1825  0.2949 -0.2772
   81_EC     C5  485   3.565   3.906   1.726 -0.1054  0.0435 -0.4935
   81_EC     C6  486   3.672   0.031   1.697  0.2250 -0.1445  0.0316
   82_EC     O1  487   2.332   0.005   1.271 -0.0607 -0.7421 -0.0099
   82_EC     C2  488   2.254   0.096   1.271  0.6393 -0.1239  0.2447
   82_EC     O3  489   2.243   0.193   1.365  0.2944 -0.1977  0.2807
   82_EC     O4  490   2.128   0.082   1.221  0.7146  0.2584 -0.0533
   82_EC     C5  491   2.161   0.294   1.304  0.1554 -0.2456  0.3863
   82_EC     C6  492   2.072   0.213   1.211  0.2939  0.0834 -0.0327
   83_EC     O1  493   3.094   3.794   0.138 -0.1078 -0.3594  0.4830
   83_EC     C2  494   3.136   3.905   0.119 -0.0197 -0.4796 -0.0270
   83_EC     O3  495   3.239   3.958   0.190 -0.3284 -0.1354  0.1650
   83_EC     O4  496   3.067   0.030   0.066  0.1465 -0.0843  0.5209
   83_EC     C5  497   3.279   0.094   0.114 -0.9345  0.1625  0.2907
   83_EC     C6  498   3.165   0.121   0.016 -0.4599  0.1622 -0.2625
   84_EC     O1  499   0.383   1.622   0.153  0.5169 -0.5142  0.2870
   84_EC     C2  500   0.399   1.551   0.057  0.0322 -0.1385 -0.0731
   84_EC     O3  501   0.295   1.506   3.961 -0.0075 -0.2233  0.0353
   84_EC     O4  502   0.487   1.581   3.936  0.4456 -0.3778  0.2172
   84_EC     C5  503   0.349   1.430   3.852  0.0398  0.0074 -0.1024
   84_EC     C6  504   0.498   1.460   3.860  0.0706 -0.0868 -0.3112
   85_EC     O1  505   2.755   1.615   3.442  0.2553 -0.2073 -0.6020
   85_EC     C2  506   2.642   1.592   3.408  0.0920 -0.5270  0.1505
   85_EC     O3  507   2.571   1.493   3.469  0.1771 -0.8493 -0.2663
   85_EC     O4  508   2.602   1.594   3.278  0.1106 -0.2190  0.1493
   85_EC     C5  509   2.439   1.519   3.422  0.2618 -0.4472 -0.2831
   85_EC     C6  510   2.460   1.598   3.294  0.0709 -0.2528 -0.1949
   86_EC     O1  511   0.674   0.709   2.195 -0.0981 -0.3123  0.0619
   86_EC     C2  512   0.570   0.649   2.202 -0.3256 -0.0209 -0.6727
   86_EC     O3  513   0.550   0.517   2.176  0.3883 -0.2532 -0.0844
   86_EC     O4  514   0.471   0.690   2.286  0.1617  0.0594 -0.1302
   86_EC     C5  515   0.409   0.497   2.164  0.2525  0.6793 -0.1060
   86_EC     C6  516   0.359   0.629   2.222 -0.3821  0.0400  0.8226
   87_EC     O1  517   3.112   3.126   0.562 -0.0261  0.7689 -0.1713
   87_EC     C2  518   3.026   3.204   0.531 -0.9307 -0.2132 -0.2139
   87_EC     O3  519   2.976   3.301   0.613 -0.0025 -0.1941  0.3423
   87_EC     O4  520   2.921   3.162   0.456 -0.7150 -0.3886 -0.4186
   87_EC     C5  521   2.904   3.385   0.523 -0.3136 -0.2609  0.5283
   87_EC     C6  522   2.869   3.287   0.411  0.5098  0.2237 -0.1711
   88_EC     O1  523   1.003   2.189   3.901 -0.7778 -0.2139 -0.2717
   88_EC     C2  524   1.053   2.295   3.875  0.2096 -0.7153 -0.4326
   88_EC     O3  525   1.155   2.346   3.948  0.1106  0.0826 -0.8458
   88_EC     O4  526   1.021   2.385   3.778  0.2766 -0.3376 -0.1039
   88_EC     C5  527   1.181   2.480   3.904 -0.0069  0.2728 -0.3498
   88_EC     C6  528   1.142   2.458   3.758  0.1026 -0.1067 -0.3231
   89_EC     O1  529   0.155   3.108   1.347  0.0988 -0.0027 -0.2151
   89_EC     C2  530   0.155   3.054   1.454  0.1292  0.3707 -0.0237
   89_EC     O3  531   0.254   3.058   1.548 -0.1671 -0.3188  0.3284
   89_EC     O4  532   0.095   2.932   1.458  0.1994  0.3391  0.0652
   89_EC     C5  533   0.202   2.984   1.659  0.4118  0.0810  0.8661
   89_EC     C6  534   0.128   2.874   1.585  0.5034  0.5411  0.0780
   90_EC     O1  535   0.275   1.492   2.467  0.1479 -0.2467  0.2168
   90_EC     C2  536   0.184   1.505   2.391  0.0616  0.5745  0.4592
   90_EC     O3  537   0.114   1.398   2.344  0.4434  0.2791  0.5612
   90_EC     O4  538   0.183   1.588   2.283 -0.1089 -0.3354 -0.2522
   90_EC     C5  539   3.974   1.457   2.293  0.4523 -0.2301 -0.0570
   90_EC     C6  540   0.045   1.592   2.248  0.0151 -0.2892 -0.7348
   91_EC     O1  541   2.895   2.527   3.464 -0.2779 -0.8482  0.1907
   91_EC     C2  542   2.843   2.565   3.363 -0.5696  0.1645  0.7070
   91_EC     O3  543   2.904   2.643   3.269 -0.0705 -0.1348  0.7790
   91_EC     O4  544   2.711   2.590   3.348 -0.3965  0.6917 -0.0097
   91_EC     C5  545   2.819   2.645   3.155  0.4757  0.5209  0.3764
   91_EC     C6  546   2.681   2.613   3.210  0.2813  0.3166 -0.2229
   92_EC     O1  547   0.833   1.399   1.012  0.2803 -0.1547  0.1359
   92_EC     C2  548   0.907   1.320   0.960  0.3831  0.0589 -0.0406
   92_EC     O3  549   0.874   1.243   0.852 -0.2821  0.0211  0.1879
   92_EC     O4  550   1.042   1.327   0.977  0.3732  0.4207 -0.1087
   92_EC     C5  551   0.982   1.150   0.841  0.2502  0.6541  0.0002
   92_EC     C6  552   1.102   1.224   0.898  0.4270  0.3662  0.0035
   93_EC     O1  553   0.682   2.789   0.905 -0.0810  0.2095 -0.6731
   93_EC     C2  554   0.653   2.893   0.852 -0.0978  0.5163 -0.0738
   93_EC     O3  555   0.631   3.007   0.923  0.5569  0.6929 -0.1475
   93_EC     O4  556   0.580   2.897   0.738 -0.0555 -0.1296 -0.1315
   93_EC     C5  557   0.619   3.111   0.825  0.0222  0.4271 -0.3644
   93_EC     C6  558   0.605   3.032   0.696 -0.1249 -0.0872 -0.0384
   94_EC     O1  559   0.306   3.839   1.942 -0.0672  0.4059 -0.2143
   94_EC     C2  560   0.258   3.945   1.912 -0.0472  0.4626 -0.0474
   94_EC     O3  561   0.261   0.077   1.991 -0.2990  0.2812  0.2215
   94_EC     O4  562   0.282   0.014   1.787  0.2120  0.0115 -0.1759
   94_EC     C5  563   0.173   0.164   1.920 -0.3707  0.4834  0.5560
   94_EC     C6  564   0.187   0.120   1.775  0.6379  0.5005  0.6430
   95_EC     O1  565   2.050   3.714   0.441 -0.5600  0.0684  0.0960
   95_EC     C2  566   2.149   3.696   0.506 -0.5435 -0.4163 -0.0570
   95_EC     O3  567   2.219   3.795   0.568 -0.5582 -0.4477  0.0096
   95_EC     O4  568   2.233   3.593   0.476 -0.0774 -0.0882  0.1181
   95_EC     C5  569   2.352   3.750   0.594 -0.2237  0.4130 -0.1583
   95_EC     C6  570   2.341   3.600   0.569 -0.3180  0.3324  0.3711
   96_EC     O1  571   2.771   3.137   1.616  0.0342  0.2997  0.0297
   96_EC     C2  572   2.856   3.220   1.629  0.1003  0.1907  0.2828
   96_EC     O3  573   2.838   3.343   1.576 -0.2969  0.0674  0.1327
   96_EC     O4  574   2.988   3.197   1.607 -0.0226 -0.0996 -0.1497
   96_EC     C5  575   2.949   3.412   1.634 -0.1484 -0.3718  0.3726
   96_EC     C6  576   3.062   3.312   1.649  0.1445 -0.1483 -0.3028
   97_EC     O1  577   2.652   3.879   2.588  0.1768  0.4343  0.3841
   97_EC     C2  578   2.739   3.857   2.508 -0.0979 -0.3315  0.2845
   97_EC     O3  579   2.739   3.737   2.445 -0.0371 -0.1012 -0.1611
   97_EC     O4  580   2.868   3.890   2.533 -0.0965  0.1921 -0.3816
   97_EC     C5  581   2.852   3.743   2.358 -0.5860  1.1302 -0.8064
   97_EC     C6  582   2.949   3.838   2.427 -0.0911  0.3973 -0.4785
   98_EC     O1  583   0.397   0.422   2.537  0.2100  0.3342 -0.2591
   98_EC     C2  584   0.468   0.326   2.528 -0.1271  0.0751 -0.1273
   98_EC     O3  585   0.538   0.301   2.414  0.3090  0.3731  0.0742
   98_EC     O4  586   0.432   0.203   2.574 -0.3242 -0.0150 -0.5208
   98_EC     C5  587   0.629   0.196   2.447 -0.5824 -0.4130  0.0665
   98_EC     C6  588   0.546   0.120   2.550 -0.1741 -0.1481  0.5948
   99_EC     O1  589   1.877   3.939   0.179 -0.2407 -0.0534  0.0093
   99_EC     C2  590   1.844   3.857   0.098 -0.1925 -0.3381  0.2775
   99_EC     O3  591   1.788   3.881   3.954  0.0907 -0.2658  0.1588
   99_EC     O4  592   1.894   3.730   0.101  0.0842 -0.2269  0.4328
   99_EC     C5  593   1.846   3.783   3.868 -0.0112 -0.0819 -0.1198
   99_EC     C6  594   1.856   3.662   3.959 -0.6888  0.2451  0.3989
  100_EC     O1  595   1.790   3.032   1.749  0.0212  0.0947 -0.6228
  100_EC     C2  596   1.688   3.038   1.686 -0.2562  0.2124 -0.1698
  100_EC     O3  597   1.655   2.935   1.604 -0.2638 -0.3113  0.4827
  100_EC     O4  598   1.566   3.077   1.731 -0.1929  0.1852  0.0285
  100_EC     C5  599   1.551   2.991   1.523  0.1385 -0.3109 -0.0410
  100_EC     C6  600   1.471   3.072   1.624  0.2436  0.2027 -0.3662
  101_EC     O1  601   2.316   0.382   0.407  0.1584 -0.2185  0.6394
  101_EC     C2  602   2.349   0.380   0.292 -0.2612  0.4906  0.5027
  101_EC     O3  603   2.467   0.433   0.250  0.2051 -0.5400  0.4766
  101_EC     O4  604   2.277   0.421   0.184  0.4401 -0.0241 -0.1682
  101_EC     C5  605   2.482   0.395   0.112  0.1664 -0.6230  0.4946
  101_EC     C6  606   2.340   0.389   0.059  0.3827 -0.2931 -0.1300
  102_EC     O1  607   0.257   3.846   2.269  0.5494  0.0491  0.4963
  102_EC     C2  608   0.202   3.951   2.289 -0.0848 -0.1893  0.0356
  102_EC     O3  609   0.270   0.084   2.329 -0.2117 -0.0328 -0.1817
  102_EC     O4  610   0.086   3.958   2.359 -0.1651 -0.1949 -0.0974
  102_EC     C5  611   0.176   0.192   2.323 -0.1537  0.0552  0.4460
  102_EC     C6  612   0.046   0.115   2.341 -0.0773 -0.1242  0.2338
  103_EC     O1  613   3.201   3.339   1.384  0.5408  0.0656  0.1084
  103_EC     C2  614   3.267   3.315   1.287  0.5534  0.0854  0.1118
  103_EC     O3  615   3.320   3.195   1.250  0.2229  0.0236 -0.1699
  103_EC     O4  616   3.284   3.398   1.181  0.0293 -0.2865 -0.2704
  103_EC     C5  617   3.433   3.233   1.171  0.0449  0.4620 -0.2171
  103_EC     C6  618   3.409   3.373   1.117  0.1907  0.4708 -0.2596
  104_EC     O1  619   2.135   0.783   0.165  0.2842 -0.0693 -0.1532
  104_EC     C2  620   2.056   0.694   0.152 -0.2981  0.4893 -0.5017
  104_EC     O3  621   2.074   0.585   0.072 -0.6536 -0.0705  0.1812
  104_EC     O4  622   1.971   0.658   0.251  0.1471  0.0105 -0.2888
  104_EC     C5  623   1.977   0.487   0.111 -0.0548 -0.5505  0.4841
  104_EC     C6  624   1.877   0.567   0.194  0.0435 -0.2921  0.3562
  105_EC     O1  625   3.389   1.435   3.720 -0.2772  0.3468  0.6367
  105_EC     C2  626   3.469   1.498   3.783  0.7943 -0.2281 -0.1276
  105_EC     O3  627   3.502   1.463   3.910 -0.2654 -0.1344  0.1839
  105_EC     O4  628   3.582   1.549   3.727  0.4942  0.1758 -0.3689
  105_EC     C5  629   3.593   1.560   3.963 -0.5820  0.2941 -0.0492
  105_EC     C6  630   3.650   1.615   3.834  0.0935 -0.1116  0.0682
  106_EC     O1  631   0.058   3.422   2.881  0.3044 -0.4863  0.4085
  106_EC     C2  632   0.053   3.309   2.839 -0.2927 -0.5487  0.6351
  106_EC     O3  633   0.051   3.193   2.909 -0.3586 -0.6701  0.4328
  106_EC     O4  634   0.037   3.278   2.707 -0.6187 -0.1617  0.5801
  106_EC     C5  635   0.016   3.083   2.824 -0.0916 -0.3044 -0.1613
  106_EC     C6  636   0.065   3.139   2.692 -0.2785 -0.0237 -0.1112
  107_EC     O1  637   1.792   1.686   3.818 -0.1802  0.1845  0.0628
  107_EC     C2  638   1.807   1.607   3.907  0.3089 -0.1506 -0.3104
  107_EC     O3  639   1.770   1.477   3.896 -0.4117  0.0130  0.1217
  107_EC     O4  640   1.895   1.620   0.033  0.3301 -0.1107 -0.3334
  107_EC     C5  641   1.758   1.433   0.054 -0.5323  0.2288  0.1820
  107_EC     C6  642   1.856   1.521   0.129  0.2278 -0.1204 -0.3851
  108_EC     O1  643   3.161   3.155   2.407  0.1213  0.5646 -0.2417
  108_EC     C2  644   3.187   3.207   2.512  0.2722 -0.0144  0.0118
  108_EC     O3  645   3.132   3.176   2.632  0.2872  0.4121  0.1284
  108_EC     O4  646   3.211   3.340   2.527  0.1600  0.0441 -0.3070
  108_EC     C5  647   3.211   3.242   2.732 -0.5901  0.6659  0.6700
  108_EC     C6  648   3.273   3.357   2.655 -0.0459 -0.1772 -0.1746
  109_EC     O1  649   3.268   2.384   2.743 -0.1377 -0.2948 -0.5061
  109_EC     C2  650   3.381   2.355   2.769 -0.2544 -0.0460  0.3001
  109_EC     O3  651   3.492   2.432   2.782 -0.1175 -0.1054 -0.4730
  109_EC     O4  652   3.407   2.262   2.866  0.4713  0.3032  0.4483
  109_EC     C5  653   3.605   2.345   2.791 -0.0115  0.0317 -0.4794
  109_EC     C6  654   3.543   2.221   2.852  0.2859 -0.0616 -0.3648
  110_EC     O1  655   1.725   1.762   2.640  0.3879 -0.1085 -0.2389
  110_EC     C2  656   1.637   1.689   2.603 -0.2670  0.5123  0.0719
  110_EC     O3  657   1.568   1.707   2.487  0.0338 -0.0772 -0.1971
  110_EC     O4  658   1.550   1.638   2.695  0.1934 -0.0460  0.2008
  110_EC     C5  659   1.478   1.595   2.483 -0.0613 -0.0218  0.3239
  110_EC     C6  660   1.466   1.546   2.626  0.3021 -0.2111  0.2894
  111_EC     O1  661   3.798   3.230   1.277  0.2843  0.0513 -0.0613
  111_EC     C2  662   3.802   3.326   1.205  0.2287  0.0913 -0.0107
  111_EC     O3  663   3.835   3.449   1.252 -0.2118  0.1501  0.1454
  111_EC     O4  664   3.720   3.348   1.099  0.2528 -0.7516 -0.2115
  111_EC     C5  665   3.880   3.514   1.133 -0.2651  0.0596  0.0765
  111_EC     C6  666   3.793   3.447   1.027  0.1007 -0.4225  0.0791
  112_EC     O1  667   2.030   1.267   2.022  0.1945  0.2695  0.3124
  112_EC     C2  668   2.135   1.322   2.044  0.2835 -0.0407  0.6760
  112_EC     O3  669   2.165   1.390   2.158 -0.0058  0.1934  0.6157
  112_EC     O4  670   2.203   1.396   1.954  0.0077 -0.5662  0.0261
  112_EC     C5  671   2.308   1.374   2.156 -0.0835 -0.4901  0.1351
  112_EC     C6  672   2.336   1.388   2.008 -0.0241 -0.0656  0.1855
  113_EC     O1  673   0.695   2.428   3.772  0.1579 -0.4684  0.1803
  113_EC     C2  674   0.731   2.518   3.843 -0.0161 -0.2665  0.0160
  113_EC     O3  675   0.689   2.646   3.828  0.6620 -0.0344  0.0606
  113_EC     O4  676   0.862   2.522   3.880 -0.0536  0.0827  0.1179
  113_EC     C5  677   0.747   2.708   3.943 -0.2132 -0.0393  0.5172
  113_EC     C6  678   0.858   2.615   0.010 -0.3942 -0.2955  0.4345
  114_EC     O1  679   3.661   1.040   3.170  0.0012 -0.2490  0.4681
  114_EC     C2  680   3.560   1.017   3.230 -0.2412  0.3457  0.2949
  114_EC     O3  681   3.463   1.111   3.244 -0.0469  0.5847  0.0387
  114_EC     O4  682   3.570   0.958   3.352 -0.2565 -0.8150 -0.2510
  114_EC     C5  683   3.360   1.052   3.324  0.3341  0.3970  0.3967
  114_EC     C6  684   3.437   0.950   3.404 -0.1740 -0.2636  0.0558
  115_EC     O1  685   1.797   1.463   0.631 -0.1173 -0.1582  0.2151
  115_EC     C2  686   1.832   1.472   0.745 -0.3970  0.2583  0.2681
  115_EC     O3  687   1.793   1.576   0.823 -0.0054  0.7065 -0.1190
  115_EC     O4  688   1.881   1.372   0.823  0.3284  0.3132 -0.1026
  115_EC     C5  689   1.862   1.567   0.948 -0.2728 -0.0927 -0.0171
  115_EC     C6  690   1.887   1.418   0.959  0.0010 -0.0436  0.0355
  116_EC     O1  691   2.779   3.651   3.336 -1.1472  0.3507 -0.0263
  116_EC     C2  692   2.794   3.545   3.282 -0.7327  0.2007  0.3841
  116_EC     O3  693   2.733   3.430   3.322 -0.3037 -0.1561  0.0333
  116_EC     O4  694   2.922   3.502   3.266 -0.7510  0.3393 -0.1507
  116_EC     C5  695   2.759   3.350   3.207 -0.0034 -0.1287  0.0802
  116_EC     C6  696   2.906   3.384   3.187 -0.2450  0.5616 -0.5969
  117_EC     O1  697   1.728   0.142   1.073  0.4433  0.0683 -0.1625
  117_EC     C2  698   1.747   0.220   0.983 -0.0143 -0.1267 -0.4310
  117_EC     O3  699   1.661   0.248   0.881 -0.2910 -0.0979 -0.1929
  117_EC     O4  700   1.842   0.317   0.989  0.4102 -0.5569 -0.0794
  117_EC     C5  701   1.697   0.375   0.825 -0.5563 -0.1273 -0.4321
  117_EC     C6  702   1.844   0.385   0.863 -0.6375 -0.4168 -0.0329
  118_EC     O1  703   3.654   2.501   3.233 -0.0048 -0.2426  0.1299
  118_EC     C2  704   3.587   2.402   3.231  0.3407 -0.4724 -0.8147
  118_EC     O3  705   3.593   2.314   3.335 -0.1466  0.2115 -0.2007
  118_EC     O4  706   3.481   2.377   3.148 -0.4074  0.2936 -0.1049
  118_EC     C5  707   3.467   2.247   3.333  0.3964 -0.8290 -0.0240
  118_EC     C6  708   3.445   2.243   3.182 -0.2478  0.2849  0.0348
  119_EC     O1  709   2.326   3.133   3.939  0.3235  0.0019 -0.2051
  119_EC     C2  710   2.421   3.198   3.975  0.3275  0.1362 -0.4572
  119_EC     O3  711   2.498   3.157   0.102 -0.3634 -0.4622 -0.1735
  119_EC     O4  712   2.428   3.334   3.971  0.0831  0.1375 -0.9488
  119_EC     C5  713   2.614   3.241   0.101 -0.7494  0.0870  0.2710
  119_EC     C6  714   2.566   3.361   0.021 -0.1827  0.3125  0.2669
  120_EC     O1  715   2.392   0.905   2.699  0.0697  0.0882  0.3739
  120_EC     C2  716   2.326   0.968   2.778 -0.1950  0.2749  0.0079
  120_EC     O3  717   2.308   0.913   2.901  0.7847  0.7514  0.3743
  120_EC     O4  718   2.349   1.100   2.801  0.3749  0.1411  0.2265
  120_EC     C5  719   2.240   1.012   2.979 -0.4836  0.1975 -0.0100
  120_EC     C6  720   2.266   1.144   2.908 -0.4862 -0.0003 -0.3794
  121_EC     O1  721   0.558   0.487   1.868  0.2294  0.0820 -0.3498
  121_EC     C2  722   0.643   0.473   1.784  0.0318 -0.1670 -0.5130
  121_EC     O3  723   0.632   0.374   1.691 -0.7175 -0.3747 -0.2143
  121_EC     O4  724   0.700   0.579   1.721  0.3368  0.1825  0.3381
  121_EC     C5  725   0.758   0.385   1.623 -0.6200  0.0957  0.0377
  121_EC     C6  726   0.803   0.530   1.635  0.0592 -0.1257  0.1796
  122_EC     O1  727   1.363   1.386   2.082  0.0105  0.5006 -0.3492
  122_EC     C2  728   1.288   1.429   2.165 -0.1866 -0.3144 -0.0937
  122_EC     O3  729   1.230   1.552   2.157 -0.1872 -0.2980  0.1640
  122_EC     O4  730   1.303   1.407   2.298 -0.2362 -0.1794 -0.0656
  122_EC     C5  731   1.128   1.551   2.257 -0.1545 -0.3775  0.1967
  122_EC     C6  732   1.173   1.439   2.349  0.0753  0.0435  0.6062
  123_EC     O1  733   3.727   0.466   0.795 -0.3727  0.0066 -0.3727
  123_EC     C2  734   3.629   0.533   0.812 -0.2414  0.2294 -0.4790
  123_EC     O3  735   3.500   0.491   0.822 -0.0612 -0.0860  0.7488
  123_EC     O4  736   3.623   0.669   0.805  0.0728  0.2582 -0.2221
  123_EC     C5  737   3.432   0.590   0.900 -0.3333  0.2075  0.1544
  123_EC     C6  738   3.487   0.709   0.824 -0.0609 -0.1719 -0.2496
  124_EC     O1  739   2.595   3.681   3.669 -0.1856  0.0238  0.3110
  124_EC     C2  740   2.572   3.574   3.620  0.1171  0.1107 -0.0291
  124_EC     O3  741   2.597   3.457   3.686  0.4791 -0.1084 -0.5454
  124_EC     O4  742   2.457   3.537   3.556  0.1354 -0.0543  0.0323
  124_EC     C5  743   2.593   3.348   3.595  0.1893  0.1840 -0.8883
  124_EC     C6  744   2.494   3.412   3.499 -0.0730  0.1803 -0.6208
  125_EC     O1  745   3.647   3.609   1.780  0.0326 -0.0933  0.3307
  125_EC     C2  746   3.748   3.554   1.747  0.0019  0.3024 -0.4313
  125_EC     O3  747   3.846   3.615   1.675 -0.0487  0.5813 -0.2643
  125_EC     O4  748   3.743   3.428   1.696 -0.1653  0.0245  0.2663
  125_EC     C5  749   3.954   3.522   1.672 -0.3774  0.1814  0.2530
  125_EC     C6  750   3.881   3.391   1.699 -0.1655 -0.0122 -0.1061
  126_EC     O1  751   1.992   2.117   2.921  0.1805 -0.6774  0.1076
  126_EC     C2  752   1.993   2.057   2.817  0.3676 -0.1940 -0.1688
  126_EC     O3  753   2.070   1.946   2.800  0.1488 -0.3245 -0.3053
  126_EC     O4  754   1.978   2.116   2.695  0.3687  0.1305 -0.0136
  126_EC     C5  755   2.039   1.898   2.669 -0.1776 -0.4263 -0.1934
  126_EC     C6  756   1.967   2.011   2.598  0.3391  0.0633  0.0619
  127_EC     O1  757   2.330   2.778   1.859  0.2015  0.1687 -0.5661
  127_EC     C2  758   2.267   2.861   1.800 -0.4029  0.0735 -0.0654
  127_EC     O3  759   2.134   2.845   1.777 -0.2960 -0.3634 -0.4169
  127_EC     O4  760   2.322   2.934   1.699 -0.5436  0.0168 -0.1846
  127_EC     C5  761   2.098   2.978   1.737  0.1419 -0.0310  0.2585
  127_EC     C6  762   2.215   3.013   1.647 -0.3477  0.2119 -0.2935
  128_EC     O1  763   0.069   2.118   2.625 -0.0117 -0.0164  0.1060
  128_EC     C2  764   0.122   2.156   2.726  0.0172  0.0477  0.0663
  128_EC     O3  765   0.114   2.287   2.764 -0.3032  0.0032  0.1517
  128_EC     O4  766   0.171   2.077   2.825 -0.4619  0.2859  0.4936
  128_EC     C5  767   0.227   2.305   2.849 -0.0196 -0.2590 -0.1636
  128_EC     C6  768   0.214   2.173   2.923 -0.3905  0.1790  0.5672
  129_EC     O1  769   0.540   0.833   1.629  0.1182 -0.0572  0.3306
  129_EC     C2  770   0.439   0.779   1.665 -0.2380  0.5350  0.2394
  129_EC     O3  771   0.377   0.811   1.782 -0.2537  0.5585  0.2244
  129_EC     O4  772   0.382   0.665   1.618  0.0980  0.1569  0.7212
  129_EC     C5  773   0.300   0.701   1.831  0.4935 -0.0809 -0.0205
  129_EC     C6  774   0.267   0.635   1.698  0.1493 -0.8415  0.4334
  130_EC     O1  775   2.618   1.678   0.396 -0.4749 -0.0624 -0.1742
  130_EC     C2  776   2.517   1.737   0.369 -0.2996 -0.0276 -0.7885
  130_EC     O3  777   2.476   1.851   0.432 -0.0117 -0.2106 -0.2610
  130_EC     O4  778   2.405   1.670   0.331 -0.2436 -0.1286 -0.7756
  130_EC     C5  779   2.369   1.900   0.351  0.4755  0.4634 -0.4982
  130_EC     C6  780   2.318   1.773   0.284 -0.2169  0.3547  0.2321
  131_EC     O1  781   0.656   1.343   1.613  0.3730 -0.5664  0.0849
  131_EC     C2  782   0.700   1.388   1.510  0.1309 -0.4076  0.0503
  131_EC     O3  783   0.833   1.375   1.487  0.1144 -0.0162 -0.2610
  131_EC     O4  784   0.646   1.366   1.388  0.2375 -0.1849 -0.0381
  131_EC     C5  785   0.847   1.467   1.378 -0.0828  0.0948 -0.1946
  131_EC     C6  786   0.716   1.456   1.302 -0.3891  0.5961  0.2600
  132_EC     O1  787   1.859   3.393   1.222  0.0543 -0.2121 -0.0715
  132_EC     C2  788   1.797   3.296   1.187  0.4232 -0.4107 -0.1869
  132_EC     O3  789   1.666   3.273   1.215  0.4759 -0.5427 -0.0469
  132_EC     O4  790   1.810   3.240   1.064 -0.3949  0.0711 -0.5001
  132_EC     C5  791   1.643   3.137   1.176 -0.7752 -0.2174 -0.4884
  132_EC     C6  792   1.741   3.115   1.062 -0.2138 -0.0388 -0.0469
  133_EC     O1  793   0.559   3.958   0.047  0.1854 -0.4792 -0.1349
  133_EC     C2  794   0.564   3.838   0.053 -0.0703 -0.4769  0.1479
  133_EC     O3  795   0.635   3.769   0.145 -0.0921  0.1476  0.6449
  133_EC     O4  796   0.591   3.769   3.917 -0.7981 -0.2938 -0.1401
  133_EC     C5  797   0.594   3.633   0.124  0.2963  0.1722 -0.3038
  133_EC     C6  798   0.581   3.630   3.950  0.7947 -0.4768 -0.3412
  134_EC     O1  799   2.800   0.399   1.808  0.2102  0.1633 -0.2177
  134_EC     C2  800   2.762   0.451   1.910  0.3211  0.4570 -0.3221
  134_EC     O3  801   2.752   0.383   2.028 -0.2025  0.3414 -0.4276
  134_EC     O4  802   2.804   0.575   1.944 -0.0560  0.4130  0.3238
  134_EC     C5  803   2.675   0.473   2.107  0.6079  0.3318  0.3830
  134_EC     C6  804   2.725   0.608   2.059  0.4083  0.4931  0.6212
  135_EC     O1  805   3.288   0.090   1.627  0.7076  0.2956  0.7230
  135_EC     C2  806   3.342   0.143   1.534 -0.2298 -0.3068 -0.1787
  135_EC     O3  807   3.323   0.269   1.487 -0.2473 -0.2108  0.0884
  135_EC     O4  808   3.470   0.115   1.499 -0.0313 -0.2776  0.5220
  135_EC     C5  809   3.378   0.271   1.356 -0.1740  0.3079  0.1243
  135_EC     C6  810   3.485   0.164   1.366 -0.0494  0.4916  0.7976
  136_EC     O1  811   1.639   3.481   2.223  0.3105 -0.2656  0.6961
  136_EC     C2  812   1.626   3.466   2.104 -0.6675 -0.0428  0.7690
  136_EC     O3  813   1.505   3.477   2.043 -0.1126  0.1764 -0.3099
  136_EC     O4  814   1.696   3.372   2.035 -0.6367  0.4038  0.1914
  136_EC     C5  815   1.532   3.475   1.903 -0.3960 -0.1367 -0.3620
  136_EC     C6  816   1.664   3.400   1.898  0.1078  0.6997  0.0735
  137_EC     O1  817   2.958   1.465   0.520  0.0417  0.2121 -0.5259
  137_EC     C2  818   3.070   1.439   0.555 -0.2519 -0.2919  0.0592
  137_EC     O3  819   3.111   1.396   0.677  0.1303 -0.4083 -0.1080
  137_EC     O4  820   3.177   1.448   0.471 -0.2700 -0.1295  0.0543
  137_EC     C5  821   3.232   1.324   0.652 -0.0977 -0.6625 -0.4856
  137_EC     C6  822   3.294   1.407   0.541 -0.1758  0.0677  0.0137
  138_EC     O1  823   1.766   3.790   2.052  0.6405 -0.4346 -0.0550
  138_EC     C2  824   1.792   3.892   1.994 -0.3032 -0.0199  0.2232
  138_EC     O3  825   1.919   3.908   1.946 -0.5335  0.0603 -0.3665
  138_EC     O4  826   1.758   0.037   2.038 -0.0468  0.1426 -0.0281
  138_EC     C5  827   1.925   0.061   1.891  0.1920  0.2038  0.0457
  138_EC     C6  828   1.799   0.131   1.938 -0.2374 -0.2224 -0.4528
  139_EC     O1  829   0.401   2.461   3.160  0.2305  0.4858 -0.0903
  139_EC     C2  830   0.494   2.443   3.235  0.3981  0.2322 -0.3564
  139_EC     O3  831   0.577   2.545   3.269  0.1234  0.3493 -0.0261
  139_EC     O4  832   0.483   2.357   3.339  0.1506  0.3637 -0.2722
  139_EC     C5  833   0.664   2.498   3.372 -0.0638 -0.4139 -0.2119
  139_EC     C6  834   0.595   2.374   3.426 -0.1792 -0.1460  0.2621
  140_EC     O1  835   2.735   3.061   3.045 -0.1632 -0.2553  0.6055
  140_EC     C2  836   2.661   2.995   2.977  0.1125  0.1511 -0.1000
  140_EC     O3  837   2.564   3.028   2.888 -0.1394  0.1378  0.1705
  140_EC     O4  838   2.707   2.876   2.929 -0.1710 -0.0540  0.1377
  140_EC     C5  839   2.490   2.908   2.866  0.3974 -0.1997  0.1847
  140_EC     C6  840   2.602   2.806   2.861  0.2399 -0.3555 -0.1868
  141_EC     O1  841   0.317   0.604   3.835  0.0225 -0.4590  0.2700
  141_EC     C2  842   0.244   0.590   3.741 -0.2118  0.3095  0.3327
  141_EC     O3  843   0.195   0.468   3.704  0.2884  0.1542  0.1745
  141_EC     O4  844   0.145   0.677   3.705 -0.3832  0.0405  0.1467
  141_EC     C5  845   0.111   0.483   3.588  0.2557 -0.2291  0.1479
  141_EC     C6  846   0.087   0.633   3.582 -0.0690 -0.2817  0.1124
  142_EC     O1  847   3.445   3.817   3.499  0.3055  0.6445 -0.3357
  142_EC     C2  848   3.436   3.861   3.388  0.0991  0.3771 -0.4260
  142_EC     O3  849   3.511   3.819   3.283 -0.2619 -0.7967 -0.2254
  142_EC     O4  850   3.319   3.910   3.339 -0.2644 -0.2194 -0.1614
  142_EC     C5  851   3.495   3.920   3.184 -0.0911 -0.1848  0.3670
  142_EC     C6  852   3.353   3.965   3.212  0.1801  0.7044  0.3497
  143_EC     O1  853   1.907   0.796   3.716  0.0973  0.0457  0.0535
  143_EC     C2  854   1.832   0.860   3.784 -0.2900  0.1124 -0.4273
  143_EC     O3  855   1.703   0.883   3.751 -0.3126  0.2598 -0.2405
  143_EC     O4  856   1.825   0.855   3.920 -0.0468  0.2986 -0.4068
  143_EC     C5  857   1.642   0.961   3.855 -0.2166  0.1701 -0.1177
  143_EC     C6  858   1.754   0.974   3.956 -0.6384 -0.2906  0.4143
  144_EC     O1  859   2.523   2.303   3.719  0.3727  0.0136 -0.3569
  144_EC     C2  860   2.624   2.365   3.734  0.2648  0.1823 -0.3285
  144_EC     O3  861   2.733   2.307   3.791 -0.0400 -0.3411 -0.2775
  144_EC     O4  862   2.637   2.495   3.772  0.1075  0.1670 -0.2210
  144_EC     C5  863   2.840   2.392   3.751 -0.2880  0.2413  0.2849
  144_EC     C6  864   2.774   2.529   3.753  0.0611  0.4162 -0.1153
  145_EC     O1  865   0.899   1.305   0.071  0.0829  0.6950  0.6245
  145_EC     C2  866   0.800   1.272   0.129 -0.0855  0.5046  0.2333
  145_EC     O3  867   0.770   1.298   0.260 -0.0478  0.2961  0.2839
  145_EC     O4  868   0.680   1.265   0.066  0.0816  0.2477 -0.0583
  145_EC     C5  869   0.645   1.238   0.292  0.0911 -0.2469 -0.1710
  145_EC     C6  870   0.597   1.191   0.156  0.0407  0.0522 -0.2580
  146_EC     O1  871   0.458   3.335   2.907 -0.0266  0.3599 -0.4294
  146_EC     C2  872   0.417   3.441   2.946  0.3410  0.2076  0.3791
  146_EC     O3  873   0.433   3.559   2.881 -0.3092 -0.0469 -0.2546
  146_EC     O4  874   0.403   3.468   3.079 -0.0018  0.0223  0.3815
  146_EC     C5  875   0.325   3.632   2.940 -0.4955 -0.6133  0.1146
  146_EC     C6  876   0.313   3.579   3.082 -0.3623 -0.2647  0.2580
  147_EC     O1  877   1.076   1.807   3.528 -0.6179  0.5103  0.2705
  147_EC     C2  878   0.995   1.732   3.483  0.4396 -0.3834 -0.1988
  147_EC     O3  879   0.950   1.624   3.553 -0.2664  0.1176  0.1310
  147_EC     O4  880   0.973   1.714   3.350 -0.1155 -0.3000 -0.1208
  147_EC     C5  881   0.824   1.599   3.491 -0.2047  0.1009  0.0115
  147_EC     C6  882   0.846   1.649   3.349 -0.0850 -0.3590 -0.1327
  148_EC     O1  883   2.964   2.371   0.578 -0.0717 -0.3535 -0.9177
  148_EC     C2  884   2.890   2.328   0.663 -0.5703  0.0844 -1.1257
  148_EC     O3  885   2.883   2.200   0.706  0.2320  0.4724  0.2034
  148_EC     O4  886   2.811   2.402   0.746  0.4252 -0.2742  0.1722
  148_EC     C5  887   2.786   2.190   0.811  0.1782  0.5579  0.1617
  148_EC     C6  888   2.706   2.318   0.794 -0.1589  0.3170 -0.0633
  149_EC     O1  889   1.155   2.971   1.998 -0.2785 -0.2953  0.0448
  149_EC     C2  890   1.262   2.998   2.045 -0.2828 -0.0966 -0.0610
  149_EC     O3  891   1.373   2.997   1.967  0.0843  0.2353  0.4499
  149_EC     O4  892   1.287   3.101   2.131 -0.5795 -0.1606  0.1055
  149_EC     C5  893   1.489   3.020   2.047  0.3493 -0.0971  0.1674
  149_EC     C6  894   1.428   3.120   2.145 -0.5247 -0.5526  0.0976
  150_EC     O1  895   0.740   2.493   0.260  0.4853 -0.2473  0.2915
  150_EC     C2  896   0.745   2.373   0.252  0.1135 -0.2670  0.3709
  150_EC     O3  897   0.783   2.322   0.132  0.4881  0.1639  0.3042
  150_EC     O4  898   0.803   2.286   0.338  0.5216 -0.3749 -0.0086
  150_EC     C5  899   0.766   2.180   0.139  0.5001  0.1428 -0.0792
  150_EC     C6  900   0.788   2.154   0.287 -0.1380 -0.2850 -0.0561
  151_EC     O1  901   1.980   2.398   1.290 -0.7188  0.1060 -0.3561
  151_EC     C2  902   2.027   2.295   1.250 -0.0788  0.3995 -0.3827
  151_EC     O3  903   1.990   2.231   1.136 -0.7612 -0.0581  0.0816
  151_EC     O4  904   2.137   2.234   1.301  0.0753  0.6405 -0.4256
  151_EC     C5  905   2.017   2.093   1.162  0.1711  0.0581 -0.2134
  151_EC     C6  906   2.133   2.097   1.259 -0.2612  0.4288  0.2917
  152_EC     O1  907   0.995   1.982   2.898  0.0495 -0.7310 -0.0988
  152_EC     C2  908   1.107   1.979   2.853  0.2750 -0.2216  0.4118
  152_EC     O3  909   1.193   2.084   2.858 -0.3259  0.3536 -0.8424
  152_EC     O4  910   1.186   1.868   2.849  0.1327 -0.3099 -0.0339
  152_EC     C5  911   1.291   2.059   2.757  0.2199  0.1035 -0.2583
  152_EC     C6  912   1.294   1.907   2.764  0.1800  0.1236  0.2203
  153_EC     O1  913   0.319   3.382   1.652 -0.3342  0.1241  0.6862
  153_EC     C2  914   0.411   3.450   1.690 -0.0150  0.1775 -0.1764
  153_EC     O3  915   0.488   3.407   1.793 -0.1072  0.2359 -0.0838
  153_EC     O4  916   0.471   3.554   1.626  0.2055 -0.0703 -0.3775
  153_EC     C5  917   0.577   3.513   1.828  0.3068 -0.0684 -0.2062
  153_EC     C6  918   0.535   3.624   1.733  0.1539 -0.1836 -0.2722
  154_EC     O1  919   3.902   0.530   2.311  0.0864  0.3036  0.3529
  154_EC     C2  920   3.967   0.545   2.411  0.3875  0.0913  0.1902
  154_EC     O3  921   0.063   0.444   2.463 -0.3797 -0.5475  0.0812
  154_EC     O4  922   0.059   0.654   2.447  0.5069  0.1004 -0.0667
  154_EC     C5  923   0.094   0.481   2.597  0.2079  0.5037 -0.3368
  154_EC     C6  924   0.112   0.631   2.578  0.8619  0.4532 -0.1452
  155_EC     O1  925   3.212   3.963   1.273 -0.8391  0.0798 -0.5872
  155_EC     C2  926   3.158   3.856   1.275 -0.5141 -0.0781 -0.2454
  155_EC     O3  927   3.216   3.751   1.340 -0.1063  0.4224  0.2103
  155_EC     O4  928   3.085   3.802   1.174 -0.9236 -0.2995  0.1610
  155_EC     C5  929   3.112   3.654   1.352  0.3336 -0.1083 -0.1921
  155_EC     C6  930   3.026   3.686   1.231 -0.7261 -0.2264  0.5188
  156_EC     O1  931   1.057   3.550   3.243  0.3781  0.2472 -0.0921
  156_EC     C2  932   1.036   3.581   3.129 -0.0407  0.1969 -0.0305
  156_EC     O3  933   0.916   3.566   3.067 -0.1048  0.1625  0.1022
  156_EC     O4  934   1.107   3.672   3.058  0.1964 -0.0164 -0.0700
  156_EC     C5  935   0.949   3.574   2.928  0.1619  0.0103  0.1555
  156_EC     C6  936   1.050   3.687   2.928  0.2266 -0.0477 -0.0867
  157_EC     O1  937   3.557   3.647   0.199  0.0640  0.1790  0.5162
  157_EC     C2  938   3.661   3.607   0.244  0.3533 -0.5375 -0.7408
  157_EC     O3  939   3.779   3.674   0.232 -0.0207  0.2791 -0.0108
  157_EC     O4  940   3.672   3.571   0.375  0.0174 -0.3208 -0.6529
  157_EC     C5  941   3.887   3.609   0.301 -0.0520 -0.0666 -0.2860
  157_EC     C6  942   3.807   3.535   0.407 -0.0553 -0.5785 -0.6404
  158_EC     O1  943   1.228   1.309   0.602 -0.0191 -0.3619 -0.1927
  158_EC     C2  944   1.126   1.348   0.553 -0.0688 -0.3863 -0.1086
  158_EC     O3  945   1.111   1.360   0.418 -0.2714  0.0536 -0.0506
  158_EC     O4  946   0.998   1.325   0.591 -0.0095  0.0616  0.3726
  158_EC     C5  947   1.004   1.452   0.400  0.2791  0.6608 -0.2741
  158_EC     C6  948   0.922   1.427   0.526  0.5242  0.0788 -0.2279
  159_EC     O1  949   2.473   2.604   0.872  0.1083 -0.0269  0.1024
  159_EC     C2  950   2.495   2.628   0.757  0.2637 -0.1388  0.1077
  159_EC     O3  951   2.479   2.532   0.662  0.0083 -0.1347  0.1472
  159_EC     O4  952   2.459   2.746   0.700  0.4470 -0.1297  0.0099
  159_EC     C5  953   2.555   2.594   0.558 -0.1589 -0.1523  0.0145
  159_EC     C6  954   2.530   2.742   0.576 -0.1158 -0.1044 -0.3153
  160_EC     O1  955   3.928   1.913   3.612  0.3218 -0.0268  0.1976
  160_EC     C2  956   3.824   1.888   3.558  0.1669  0.2618  0.3580
  160_EC     O3  957   3.767   1.951   3.452 -0.1914 -0.5304  0.0721
  160_EC     O4  958   3.742   1.785   3.591  0.1742 -0.1619 -0.8978
  160_EC     C5  959   3.686   1.861   3.375 -0.0603 -0.4496 -0.1609
  160_EC     C6  960   3.632   1.793   3.499 -0.5387  0.1736 -0.0255
  161_EC     O1  961   2.344   0.584   1.163 -0.0387 -0.1462 -0.0670
  161_EC     C2  962   2.307   0.616   1.054  0.6115  0.1489 -0.2076
  161_EC     O3  963   2.190   0.680   1.029  0.3791 -0.1634  0.0639
  161_EC     O4  964   2.360   0.576   0.935  0.1490 -0.2309 -0.2907
  161_EC     C5  965   2.170   0.691   0.888  0.4352  0.0346  0.0713
  161_EC     C6  966   2.312   0.668   0.837  0.3337 -0.0236 -0.1883
  162_EC     O1  967   0.570   2.164   2.975  0.1735  0.4871  0.3498
  162_EC     C2  968   0.665   2.235   2.957 -0.0146  0.5742 -0.3394
  162_EC     O3  969   0.700   2.336   3.041  0.7325 -0.3113  0.4262
  162_EC     O4  970   0.694   2.270   2.829  0.0738 -0.5084 -0.6272
  162_EC     C5  971   0.833   2.362   2.995  0.3064  0.3057 -0.4768
  162_EC     C6  972   0.821   2.334   2.847 -0.2341  0.0466 -0.3882
  163_EC     O1  973   3.495   1.984   1.821 -0.0147 -0.1912  0.3633
  163_EC     C2  974   3.547   2.091   1.822  0.0976 -0.2308 -0.4955
  163_EC     O3  975   3.523   2.201   1.745 -0.3249 -0.0791 -0.1537
  163_EC     O4  976   3.672   2.120   1.867 -0.1141  0.2383 -0.1978
  163_EC     C5  977   3.600   2.316   1.782 -0.1458 -0.0245 -0.6939
  163_EC     C6  978   3.684   2.260   1.895 -0.0477  0.3145 -0.5983
  164_EC     O1  979   1.321   1.005   3.622 -0.0793 -0.1778 -0.1408
  164_EC     C2  980   1.307   1.099   3.696  0.1406 -0.4775  0.2839
  164_EC     O3  981   1.405   1.160   3.767 -0.0153  0.1675 -0.0454
  164_EC     O4  982   1.190   1.158   3.733  0.0111 -0.5401 -0.0193
  164_EC     C5  983   1.341   1.231   3.874 -0.0310 -0.1314  0.1460
  164_EC     C6  984   1.211   1.277   3.809 -0.0666 -0.5041 -0.0544
  165_EC     O1  985   1.745   1.688   3.273 -0.1490 -1.0478 -0.3271
  165_EC     C2  986   1.746   1.771   3.186 -0.1708 -0.4617  0.2245
  165_EC     O3  987   1.801   1.769   3.062 -0.2154  0.1636  0.1883
  165_EC     O4  988   1.727   1.902   3.218 -0.4018 -0.3581 -0.3213
  165_EC     C5  989   1.738   1.877   2.992  0.2332  0.4801  0.2669
  165_EC     C6  990   1.710   1.981   3.100 -0.0633  0.4884  0.1817
  166_EC     O1  991   3.802   0.234   2.597 -0.0248  0.0217 -0.0658
  166_EC     C2  992   3.820   0.240   2.715  0.3832 -0.8455 -0.0734
  166_EC     O3  993   3.779   0.156   2.814 -0.1085 -0.2239  0.2652
  166_EC     O4  994   3.835   0.360   2.778  0.3867 -0.9449  0.1147
  166_EC     C5  995   3.878   0.177   2.915  0.1921  0.0147 -0.0752
  166_EC     C6  996   3.903   0.326   2.900 -0.1981  0.1699  0.7669
  167_EC     O1  997   3.817   2.101   2.149 -0.2295  0.1363  0.3182
  167_EC     C2  998   3.841   2.197   2.217 -0.2052 -0.1044  0.6495
  167_EC     O3  999   3.962   2.245   2.257 -0.1343  0.8767 -0.6576
  167_EC     O4 1000   3.764   2.309   2.204  0.0803  0.0461  0.2492
  167_EC     C5 1001   3.919   2.331   2.363  0.3870  0.3888 -0.0367
  167_EC     C6 1002   3.791   2.396   2.313  0.3262  0.2921 -0.0062
  168_EC     O1 1003   0.928   2.714   3.079 -0.1533 -0.5170  0.0479
  168_EC     C2 1004   0.947   2.738   2.963  0.1383 -0.4065  0.1193
  168_EC     O3 1005   1.050   2.819   2.926  0.3642 -0.9166 -0.3882
  168_EC     O4 1006   0.950   2.639   2.871 -0.0144 -0.0501 -0.2728
  168_EC     C5 1007   1.018   2.841   2.788 -0.3469  0.5221 -0.0153
  168_EC     C6 1008   0.972   2.703   2.745  0.2345  0.3328 -0.0365
  169_EC     O1 1009   0.867   2.802   1.874  0.2384  0.1320  0.7281
  169_EC     C2 1010   0.966   2.772   1.814 -0.0199  0.0770  0.3294
  169_EC     O3 1011   1.012   2.650   1.776  0.3946  0.4356 -0.3521
  169_EC     O4 1012   1.005   2.855   1.713 -0.1833  0.4173  0.5441
  169_EC     C5 1013   1.145   2.666   1.727  0.6603 -0.0944  0.1914
  169_EC     C6 1014   1.143   2.816   1.705 -0.4005 -0.1868 -0.3951
  170_EC     O1 1015   0.161   2.313   1.175  0.2349 -0.0887  0.2497
  170_EC     C2 1016   0.103   2.394   1.242  0.2163 -0.4302  0.6488
  170_EC     O3 1017   0.160   2.516   1.266 -0.2939 -0.1499  0.4539
  170_EC     O4 1018   3.957   2.429   1.205  0.5061  0.4916  0.4976
  170_EC     C5 1019   0.062   2.589   1.340 -0.3289  0.0760  0.1853
  170_EC     C6 1020   3.909   2.537   1.286 -0.4075  0.4999 -0.0344
  171_EC     O1 1021   2.887   0.736   2.747  0.3925  0.5034 -0.0304
  171_EC     C2 1022   2.776   0.710   2.710  0.5483 -0.2137  0.0012
  171_EC     O3 1023   2.704   0.611   2.770 -0.1383  0.4226  0.2408
  171_EC     O4 1024   2.750   0.693   2.578  0.3043  0.1291  0.0050
  171_EC     C5 1025   2.582   0.590   2.697  0.4960 -0.4828 -0.5821
  171_EC     C6 1026   2.610   0.665   2.568  0.3461  0.0366 -0.3160
  172_EC     O1 1027   0.431   0.955   2.089 -0.1609 -0.0591 -0.1038
  172_EC     C2 1028   0.438   1.055   2.155 -0.2100 -0.2434  0.1848
  172_EC     O3 1029   0.544   1.140   2.152 -0.1835 -0.2902 -0.1888
  172_EC     O4 1030   0.332   1.109   2.222 -0.4316 -0.4358 -0.0101
  172_EC     C5 1031   0.509   1.259   2.223 -0.0512 -0.1930 -0.2854
  172_EC     C6 1032   0.402   1.196   2.311  0.2406 -0.6896 -0.2801
  173_EC     O1 1033   0.415   0.236   3.614 -0.2612  0.4789  0.1203
  173_EC     C2 1034   0.357   0.139   3.652 -0.4788  0.3955 -0.4088
  173_EC     O3 1035   0.393   0.015   3.609  0.1172  0.3671  0.1582
  173_EC     O4 1036   0.323   0.124   3.783 -0.0165 -0.4520 -0.3811
  173_EC     C5 1037   0.315   3.902   3.686  0.3093 -0.1611 -0.2687
  173_EC     C6 1038   0.246   0.004   3.796  0.2374 -0.5770 -0.0066
  174_EC     O1 1039   2.637   2.876   2.542 -0.3890 -0.0491  0.4799
  174_EC     C2 1040   2.551   2.925   2.474  0.0797 -0.3107 -0.3073
  174_EC     O3 1041   2.557   2.944   2.339  0.1354  0.1642 -0.2387
  174_EC     O4 1042   2.419   2.916   2.505  0.1962 -0.6374  0.1081
  174_EC     C5 1043   2.445   3.024   2.301 -0.6046 -0.8224 -0.1650
  174_EC     C6 1044   2.348   3.003   2.416  0.1157 -0.2203  0.5731
  175_EC     O1 1045   2.440   3.747   0.944 -0.0500 -0.0018  0.1020
  175_EC     C2 1046   2.333   3.709   0.980 -0.0976  0.1906  0.1639
  175_EC     O3 1047   2.260   3.615   0.915  0.2477 -0.0519  0.1255
  175_EC     O4 1048   2.303   3.690   1.111  0.1438  0.0466  0.1982
  175_EC     C5 1049   2.133   3.602   0.980  0.2766 -0.3038  0.1329
  175_EC     C6 1050   2.161   3.673   1.112  0.1152  0.2610 -0.1349
  176_EC     O1 1051   2.220   0.509   2.668 -0.4247 -0.4492  0.1776
  176_EC     C2 1052   2.221   0.492   2.787 -0.2744 -0.2203  0.2118
  176_EC     O3 1053   2.320   0.537   2.868 -0.2944  0.4722 -0.1470
  176_EC     O4 1054   2.176   0.372   2.833  0.0691 -0.5358 -0.2599
  176_EC     C5 1055   2.282   0.485   2.996  0.2595  0.3590 -0.0281
  176_EC     C6 1056   2.179   0.376   2.976 -0.0879  0.7333 -0.2831
  177_EC     O1 1057   1.780   2.334   3.620  0.6072  0.5602 -0.6378
  177_EC     C2 1058   1.791   2.216   3.601  0.3739  0.3833  0.2803
  177_EC     O3 1059   1.815   2.123   3.698 -0.3022 -0.2679 -0.1593
  177_EC     O4 1060   1.826   2.154   3.484  0.4076 -0.1497  0.5673
  177_EC     C5 1061   1.779   1.996   3.644 -0.1965 -0.2714 -0.2242
  177_EC     C6 1062   1.798   2.015   3.495  0.0062 -0.1315 -0.1803
  178_EC     O1 1063   2.949   0.650   2.281  0.1565  0.2615 -0.0817
  178_EC     C2 1064   2.960   0.746   2.352  0.4315 -0.1819  0.4894
  178_EC     O3 1065   3.076   0.765   2.421  0.4964  0.0582  0.3143
  178_EC     O4 1066   2.910   0.871   2.334  0.2928 -0.2707  0.2526
  178_EC     C5 1067   3.042   0.871   2.511 -0.0708 -0.0684  0.2539
  178_EC     C6 1068   2.931   0.954   2.449 -0.1935 -0.2018  0.2934
  179_EC     O1 1069   1.119   0.521   1.326 -0.1828  0.3210 -0.2651
  179_EC     C2 1070   1.014   0.490   1.276 -0.2922  0.4356 -0.1054
  179_EC     O3 1071   0.911   0.437   1.348 -0.0594 -0.0573 -0.1301
  179_EC     O4 1072   0.960   0.540   1.162 -0.0354  0.2579 -0.3045
  179_EC     C5 1073   0.833   0.371   1.249 -0.3062  0.2339 -0.1307
  179_EC     C6 1074   0.861   0.446   1.120  0.2566 -0.0985 -0.2031
  180_EC     O1 1075   0.474   1.975   0.482 -0.9516 -0.1762  0.5833
  180_EC     C2 1076   0.540   2.039   0.559 -0.1892  0.0585 -0.2414
  180_EC     O3 1077   0.562   2.010   0.690  0.3791 -0.0664 -0.3608
  180_EC     O4 1078   0.655   2.093   0.511  0.1472 -0.1683  0.3061
  180_EC     C5 1079   0.632   2.128   0.733 -0.0521  0.1128 -0.1383
  180_EC     C6 1080   0.685   2.195   0.607 -1.0744  0.7312 -0.2472
  181_EC     O1 1081   3.967   0.161   3.694 -0.1932 -0.1386  0.3768
  181_EC     C2 1082   3.958   0.099   3.592  0.2461 -0.3430  0.4613
  181_EC     O3 1083   0.054   0.142   3.487 -0.0804 -0.1469  0.3031
  181_EC     O4 1084   3.839   0.085   3.527  0.6801  0.2867 -0.4974
  181_EC     C5 1085   0.025   0.052   3.380  0.2423  0.0084  0.0831
  181_EC     C6 1086   3.857   0.022   3.400  0.0426  0.4496 -0.6716
  182_EC     O1 1087   1.938   3.028   1.409 -0.1693  0.2137 -0.0980
  182_EC     C2 1088   2.021   3.025   1.323 -0.0217  0.0380  0.0499
  182_EC     O3 1089   2.057   3.143   1.265 -0.1089 -0.1670 -0.4267
  182_EC     O4 1090   2.018   2.930   1.225 -0.2822 -0.0113  0.1044
  182_EC     C5 1091   2.172   3.108   1.187 -0.0305 -0.6244 -0.1096
  182_EC     C6 1092   2.134   2.965   1.149  0.2661 -0.8744  0.5146
  183_EC     O1 1093   0.350   2.340   0.522  0.1238 -0.5025  0.1018
  183_EC     C2 1094   0.266   2.289   0.590 -0.0704 -0.1962  0.0927
  183_EC     O3 1095   0.309   2.254   0.714 -0.1045  0.4608  0.2932
  183_EC     O4 1096   0.146   2.350   0.611 -0.0724 -0.0949 -0.2154
  183_EC     C5 1097   0.192   2.205   0.780 -0.2053 -0.2201 -0.3781
  183_EC     C6 1098   0.077   2.275   0.711 -0.1330  0.3649  0.0906
  184_EC     O1 1099   1.453   3.265   3.705  0.4066 -0.5031 -0.8249
  184_EC     C2 1100   1.561   3.238   3.749  0.4629  0.6729 -0.1789
  184_EC     O3 1101   1.655   3.186   3.665  0.1869 -0.0877 -0.0249
  184_EC     O4 1102   1.576   3.177   3.870 -0.0802  0.0794 -0.4018
  184_EC     C5 1103   1.771   3.160   3.743  0.2306  0.5921  0.1380
  184_EC     C6 1104   1.713   3.137   3.881 -0.1534 -0.0944 -0.1377
  185_EC     O1 1105   1.680   2.958   2.578  0.3408 -0.0408  0.6661
  185_EC     C2 1106   1.652   3.071   2.548  0.3603 -0.3507 -0.5635
  185_EC     O3 1107   1.756   3.159   2.550  0.2028 -0.1697 -0.1388
  185_EC     O4 1108   1.552   3.132   2.617  0.9002 -0.2365  0.1275
  185_EC     C5 1109   1.697   3.283   2.511  0.1776 -0.1039  0.1103
  185_EC     C6 1110   1.551   3.256   2.546  0.2029 -0.2524  0.1016
  186_EC     O1 1111   1.765   3.495   3.662 -0.1668 -0.3714 -0.0613
  186_EC     C2 1112   1.826   3.554   3.577 -0.3178  0.4407  0.3910
  186_EC     O3 1113   1.900   3.664   3.607 -0.0380  0.3118  0.1768
  186_EC     O4 1114   1.869   3.507   3.457 -0.3506  0.1877  0.4798
  186_EC     C5 1115   1.909   3.738   3.485  0.4580  0.2202  0.1554
  186_EC     C6 1116   1.890   3.627   3.383 -0.2399  0.1161  0.3945
  187_EC     O1 1117   3.823   0.149   0.262  0.1134  0.5686  0.3794
  187_EC     C2 1118   3.901   0.204   0.190  0.1881 -0.4057 -0.2901
  187_EC     O3 1119   3.870   0.260   0.070  0.0850  0.1820  0.0101
  187_EC     O4 1120   0.038   0.253   0.240 -0.1965  0.2712 -0.0503
  187_EC     C5 1121   0.015   0.311   0.020 -0.2329  0.3572 -0.6224
  187_EC     C6 1122   0.070   0.361   0.153 -0.8423  0.2498 -0.3225
  188_EC     O1 1123   2.577   1.438   1.766 -0.1196  0.4810 -0.5277
  188_EC     C2 1124   2.521   1.356   1.698 -0.2488  0.0725  0.0571
  188_EC     O3 1125   2.400   1.306   1.734 -0.2290  0.0352  0.0717
  188_EC     O4 1126   2.586   1.258   1.630 -0.3489 -0.1719  0.3156
  188_EC     C5 1127   2.352   1.243   1.615 -0.3816 -0.1860  0.2503
  188_EC     C6 1128   2.483   1.201   1.550 -0.3536  0.2354  0.0341
  189_EC     O1 1129   0.999   0.497   0.761 -1.0272  0.0865  0.4179
  189_EC     C2 1130   0.983   0.379   0.744  0.4236 -0.0322 -0.2253
  189_EC     O3 1131   1.031   0.292   0.837 -0.0740  0.3779  0.4143
  189_EC     O4 1132   0.867   0.319   0.708  0.0827  0.4694  0.0384
  189_EC     C5 1133   1.037   0.170   0.763  0.0580  0.4158  0.3620
  189_EC     C6 1134   0.914   0.188   0.676  0.4329  0.6343 -0.1253
  190_EC     O1 1135   3.241   0.053   0.560 -0.8883  0.1030 -0.3065
  190_EC     C2 1136   3.279   3.924   0.523  0.2840  0.4514 -0.1536
  190_EC     O3 1137   3.204   3.846   0.441  0.0822 -0.0655  0.5211
  190_EC     O4 1138   3.341   3.835   0.605  0.3369  0.1136 -0.5553
  190_EC     C5 1139   3.282   3.730   0.411 -0.3861 -0.3943  0.5549
  190_EC     C6 1140   3.388   3.730   0.520  0.4036 -0.1457 -0.2002
  191_EC     O1 1141   2.353   3.102   3.314  0.0653  0.1154  0.2901
  191_EC     C2 1142   2.352   3.169   3.214  0.3982 -0.1301  0.1206
  191_EC     O3 1143   2.445   3.265   3.193  0.1863  0.0750  0.1130
  191_EC     O4 1144   2.338   3.109   3.093 -0.2093  0.3722 -0.0600
  191_EC     C5 1145   2.408   3.330   3.071  0.5825 -0.1380 -0.1245
  191_EC     C6 1146   2.326   3.221   3.004  0.3080  0.2003 -0.3462
  192_EC     O1 1147   0.023   3.730   3.542  0.4570 -0.5366  0.0937
  192_EC     C2 1148   3.905   3.667   3.513  0.1695  0.1917 -0.5306
  192_EC     O3 1149   3.869   3.636   3.386 -0.0112  0.3574 -0.5202
  192_EC     O4 1150   3.783   3.697   3.565  0.3387  0.3661 -0.2296
  192_EC     C5 1151   3.776   3.528   3.401  0.0098  0.3801 -0.2392
  192_EC     C6 1152   3.703   3.587   3.521  0.5946 -0.0483  0.3337
  193_EC     O1 1153   0.876   2.751   0.523  0.2973 -0.0751 -0.0505
  193_EC     C2 1154   0.767   2.703   0.535  0.1210  0.1714 -0.6037
  193_EC     O3 1155   0.741   2.611   0.632 -0.0834  0.1997 -0.6314
  193_EC     O4 1156   0.650   2.762   0.500  0.0220  0.1124 -0.3762
  193_EC     C5 1157   0.614   2.555   0.596  0.0145 -0.1979 -0.3573
  193_EC     C6 1158   0.554   2.656   0.500 -0.0791  0.1981  0.1093
  194_EC     O1 1159   3.935   1.652   1.422  0.0828 -0.1956 -0.3519
  194_EC     C2 1160   0.044   1.572   1.430  0.0296 -0.2376 -0.1731
  194_EC     O3 1161   0.161   1.598   1.365  0.0719  0.2911  0.1093
  194_EC     O4 1162   0.017   1.440   1.411 -0.6961 -0.1138 -0.0327
  194_EC     C5 1163   0.238   1.494   1.427 -0.6835 -0.2185  0.2106
  194_EC     C6 1164   0.143   1.376   1.435 -0.6478 -0.3274 -0.8213
  195_EC     O1 1165   2.332   0.353   2.413 -0.4025  0.7158  0.5036
  195_EC     C2 1166   2.348   0.268   2.496  0.0513  0.2930 -0.0084
  195_EC     O3 1167   2.421   0.288   2.609 -0.0801  0.1842  0.0960
  195_EC     O4 1168   2.257   0.171   2.526 -0.2047  0.5007 -0.1099
  195_EC     C5 1169   2.437   0.157   2.665 -0.1594  0.0993 -0.0816
  195_EC     C6 1170   2.310   0.083   2.625 -0.5258  0.5947  0.1481
  196_EC     O1 1171   1.567   1.152   0.189 -0.1926  0.1450  0.0713
  196_EC     C2 1172   1.457   1.110   0.215 -0.1010  0.1846  0.5295
  196_EC     O3 1173   1.440   1.026   0.321 -0.1514  0.1482  0.4925
  196_EC     O4 1174   1.349   1.192   0.209 -0.3531 -0.1788  0.0052
  196_EC     C5 1175   1.304   0.989   0.300  0.0282 -0.0578 -0.3222
  196_EC     C6 1176   1.237   1.106   0.230 -0.4152 -0.0882  0.0461
  197_EC     O1 1177   0.091   3.810   0.984 -0.0786 -0.5426 -0.0373
  197_EC     C2 1178   0.122   3.747   0.887  0.0499 -0.1457 -0.2553
  197_EC     O3 1179   0.072   3.621   0.870 -0.3208 -0.1182  0.5805
  197_EC     O4 1180   0.107   3.797   0.762 -0.5660 -0.1142 -0.1735
  197_EC     C5 1181   0.136   3.565   0.755 -0.4231 -0.0661  0.4986
  197_EC     C6 1182   0.172   3.695   0.685 -0.0821 -0.2261  0.3780
  198_EC     O1 1183   1.046   0.909   1.083 -0.2144 -0.1302 -0.0663
  198_EC     C2 1184   0.990   0.949   1.181  0.3839 -0.0195  0.2379
  198_EC     O3 1185   0.967   0.879   1.296  0.2347 -0.4738 -0.0646
  198_EC     O4 1186   0.898   1.049   1.175  0.0472 -0.2980  0.6047
  198_EC     C5 1187   0.924   0.978   1.390  0.3428 -0.1088 -0.3948
  198_EC     C6 1188   0.846   1.076   1.305 -0.1407  0.2238  0.4232
  199_EC     O1 1189   3.155   0.906   1.938 -0.3484  0.1990 -0.3195
  199_EC     C2 1190   3.085   0.889   1.842  0.0255 -0.2170 -0.5237
  199_EC     O3 1191   3.129   0.853   1.719  0.4047 -0.9364 -0.1810
  199_EC     O4 1192   2.964   0.828   1.849  0.2242 -0.5415  0.1219
  199_EC     C5 1193   3.018   0.884   1.633  0.3815 -0.0002  0.1858
  199_EC     C6 1194   2.900   0.866   1.727  0.3555 -0.5758  0.0429
  200_EC     O1 1195   1.784   1.551   1.438  0.2315  0.1888 -0.4361
  200_EC     C2 1196   1.698   1.561   1.355 -0.1695  0.1466 -0.0279
  200_EC     O3 1197   1.705   1.496   1.236  0.0004 -0.0016  0.0632
  200_EC     O4 1198   1.642   1.680   1.318  0.3709  0.4721  0.1980
  200_EC     C5 1199   1.578   1.514   1.172 -0.1430 -0.0189  0.3449
  200_EC     C6 1200   1.529   1.640   1.241  0.3724  0.1865  0.3436
  201_EC     O1 1201   3.403   0.488   2.091  0.1029 -0.4710 -0.1864
  201_EC     C2 1202   3.284   0.485   2.074  0.0962 -0.0769 -0.2120
  201_EC     O3 1203   3.218   0.369   2.098 -0.0608 -0.0779 -0.6373
  201_EC     O4 1204   3.218   0.538   1.967 -0.1189  0.5935  0.2414
  201_EC     C5 1205   3.081   0.410   2.098  0.0345  0.2884  0.5866
  201_EC     C6 1206   3.080   0.527   2.001 -0.0622  0.0743  0.3243
  202_EC     O1 1207   2.509   2.840   0.234 -0.4773 -0.2301 -0.3382
  202_EC     C2 1208   2.393   2.853   0.206 -0.4816  0.1405 -0.1508
  202_EC     O3 1209   2.343   2.800   0.092  0.0812 -0.2886 -0.2033
  202_EC     O4 1210   2.294   2.836   0.297 -0.0850 -0.5125  0.1632
  202_EC     C5 1211   2.204   2.836   0.089  0.2190  0.2673  0.0440
  202_EC     C6 1212   2.172   2.874   0.232  0.1125  0.0056  0.0892
  203_EC     O1 1213   0.017   3.322   3.500  0.5543  0.7720  0.6190
  203_EC     C2 1214   0.010   3.216   3.556  0.0457  0.2733 -0.3578
  203_EC     O3 1215   0.113   3.131   3.581 -0.0177  0.3946  0.3394
  203_EC     O4 1216   3.879   3.137   3.543  0.3844 -0.2620 -0.0220
  203_EC     C5 1217   0.061   3.040   3.678  0.2437  0.4144  0.5005
  203_EC     C6 1218   3.891   3.043   3.650  0.2916 -0.0348  0.1912
  204_EC     O1 1219   3.144   2.750   3.836 -0.2091  0.5585  0.2779
  204_EC     C2 1220   3.134   2.788   3.723  0.4160  0.3080  0.1337
  204_EC     O3 1221   3.189   2.728   3.614  0.1509  0.0726  0.1311
  204_EC     O4 1222   3.084   2.907   3.682 -0.5070 -0.2339 -0.3427
  204_EC     C5 1223   3.104   2.762   3.503  0.5572 -0.2953 -0.2955
  204_EC     C6 1224   3.033   2.888   3.550 -0.0838 -0.5951 -0.4516
  205_EC     O1 1225   1.764   0.211   0.500  0.0737 -0.3329  0.0375
  205_EC     C2 1226   1.872   0.182   0.456  0.2785  0.2268  0.1617
  205_EC     O3 1227   1.943   0.252   0.363  0.1349  0.2481  0.0679
  205_EC     O4 1228   1.971   0.164   0.548  0.2270 -0.6588  0.0530
  205_EC     C5 1229   2.059   0.175   0.331 -0.0465  0.0469 -0.1085
  205_EC     C6 1230   2.080   0.116   0.470  0.5372  0.2700 -0.1012
  206_EC     O1 1231   1.516   1.215   2.337  0.0373  0.1478 -0.0529
  206_EC     C2 1232   1.578   1.198   2.236 -0.1576 -0.2561 -0.1040
  206_EC     O3 1233   1.710   1.167   2.231 -0.1175 -0.0496 -0.3529
  206_EC     O4 1234   1.518   1.127   2.136  0.0356  0.0979 -0.4752
  206_EC     C5 1235   1.738   1.164   2.091 -0.6696  0.0925 -0.4676
  206_EC     C6 1236   1.607   1.121   2.025 -0.3196 -0.5880 -0.7307
  207_EC     O1 1237   0.050   1.007   2.437  0.1954  0.1164  0.1070
  207_EC     C2 1238   0.042   0.965   2.325 -0.7215  0.3603  0.0720
  207_EC     O3 1239   3.937   0.864   2.290  0.2409 -0.4065 -0.0956
  207_EC     O4 1240   0.038   1.042   2.214 -0.4212  0.1760 -0.0672
  207_EC     C5 1241   0.000   0.817   2.162 -0.0688  0.1538 -0.4147
  207_EC     C6 1242   0.059   0.947   2.110 -0.2553  0.3333 -0.1795
  208_EC     O1 1243   1.448   0.390   3.509  0.0972 -0.4146  0.4499
  208_EC     C2 1244   1.548   0.452   3.532 -0.0174  0.0780 -0.3566
  208_EC     O3 1245   1.573   0.578   3.485  0.0612  0.1788 -0.0452
  208_EC     O4 1246   1.610   0.446   3.652  0.0533  0.0933 -0.3924
  208_EC     C5 1247   1.709   0.605   3.516  0.2927 -0.5460 -0.4022
  208_EC     C6 1248   1.735   0.515   3.636  0.1273  0.0843  0.1110
  209_EC     O1 1249   3.270   1.741   0.416  0.8149 -0.1427  0.9372
  209_EC     C2 1250   3.154   1.774   0.413  1.1058  0.8485 -0.0144
  209_EC     O3 1251   3.099   1.860   0.322 -0.0806  0.3707  0.2395
  209_EC     O4 1252   3.075   1.781   0.523  0.2169 -0.4527 -0.5512
  209_EC     C5 1253   2.958   1.842   0.334 -0.0274 -0.3503 -0.1657
  209_EC     C6 1254   2.940   1.789   0.475  0.0515  0.0620 -0.0016
  210_EC     O1 1255   0.967   3.599   0.137  0.0421 -0.0665  0.1098
  210_EC     C2 1256   1.017   3.698   0.183  0.4808  0.0640 -0.6288
  210_EC     O3 1257   0.947   3.780   0.265  0.2797 -0.5614 -0.1643
  210_EC     O4 1258   1.139   3.694   0.244 -0.0170 -0.2992  0.3647
  210_EC     C5 1259   1.032   3.889   0.303  0.0665 -0.5172  0.1905
  210_EC     C6 1260   1.169   3.829   0.279  0.1354 -0.1324 -0.3936
  211_EC     O1 1261   2.410   2.210   1.878 -0.0361  0.3995  0.0330
  211_EC     C2 1262   2.396   2.157   1.771 -0.5276 -0.0872  0.3308
  211_EC     O3 1263   2.416   2.227   1.656 -0.3310 -0.2228  0.2822
  211_EC     O4 1264   2.276   2.100   1.745 -0.6838  0.3825  0.0017
  211_EC     C5 1265   2.389   2.133   1.552 -0.1051 -0.4026  0.3871
  211_EC     C6 1266   2.313   2.026   1.629 -0.3743 -0.1690  0.4468
  212_EC     O1 1267   1.607   0.783   0.221 -0.2390 -0.2716 -0.4979
  212_EC     C2 1268   1.570   0.698   0.297 -0.5455  0.0577 -0.2715
  212_EC     O3 1269   1.606   0.570   0.270 -0.3241 -0.0096  0.3145
  212_EC     O4 1270   1.513   0.710   0.420 -0.1754  0.0253 -0.0956
  212_EC     C5 1271   1.569   0.492   0.384 -0.3406 -0.2978  0.1155
  212_EC     C6 1272   1.558   0.596   0.495 -0.3305 -0.0486 -0.1158
  213_EC     O1 1273   3.627   0.793   3.710  0.2638 -0.1427 -0.7609
  213_EC     C2 1274   3.723   0.797   3.782  0.3332 -0.1208 -0.8540
  213_EC     O3 1275   3.817   0.700   3.774  0.3365 -0.2263  0.3670
  213_EC     O4 1276   3.795   0.908   3.811  0.1560 -0.2126 -0.0536
  213_EC     C5 1277   3.918   0.723   3.873  0.4127  0.0983  0.2126
  213_EC     C6 1278   3.890   0.868   3.910 -0.1116 -0.0196  0.2832
  214_EC     O1 1279   2.845   2.359   1.103 -0.1464 -0.3524  0.6525
  214_EC     C2 1280   2.965   2.356   1.103 -0.1299  0.0415  0.1585
  214_EC     O3 1281   3.043   2.255   1.151  0.0234  0.0642 -0.0410
  214_EC     O4 1282   3.031   2.421   1.004  0.4251 -0.3427  0.2735
  214_EC     C5 1283   3.171   2.318   1.157  0.1011 -0.1133  0.1719
  214_EC     C6 1284   3.168   2.420   1.044  0.6266 -0.7165 -0.3970
  215_EC     O1 1285   1.567   2.277   3.126 -0.5184 -0.3575  0.0433
  215_EC     C2 1286   1.645   2.358   3.169 -0.0473 -0.2692 -0.9483
  215_EC     O3 1287   1.764   2.302   3.206 -0.3354 -0.3609 -0.1399
  215_EC     O4 1288   1.677   2.479   3.118 -0.0933  0.2791  0.2823
  215_EC     C5 1289   1.864   2.401   3.228 -0.3552 -0.4005  0.1409
  215_EC     C6 1290   1.783   2.527   3.201  0.1488 -0.0653  0.1741
  216_EC     O1 1291   1.481   2.819   1.212 -0.3353  0.4383  0.0842
  216_EC     C2 1292   1.585   2.759   1.206 -0.1872  0.7130 -0.1747
  216_EC     O3 1293   1.590   2.624   1.191  0.3263  0.6707  0.3455
  216_EC     O4 1294   1.706   2.811   1.174  0.2150 -0.0978 -0.0045
  216_EC     C5 1295   1.721   2.593   1.141  0.1730 -0.1401  0.4281
  216_EC     C6 1296   1.808   2.710   1.183  0.2959 -0.0277 -0.1336
  217_EC     O1 1297   3.554   1.082   1.635  0.6699 -0.2787  0.1158
  217_EC     C2 1298   3.606   1.188   1.612 -0.1555  0.0986 -0.0599
  217_EC     O3 1299   3.730   1.184   1.556 -0.1384 -0.4806  0.0142
  217_EC     O4 1300   3.618   1.284   1.708 -0.1644 -0.1142  0.1546
  217_EC     C5 1301   3.772   1.320   1.544 -0.1511 -0.4339  0.5110
  217_EC     C6 1302   3.685   1.393   1.645 -0.1223 -0.0718  0.2748
  218_EC     O1 1303   0.330   2.731   0.031  0.7860 -0.7276 -0.0960
  218_EC     C2 1304   0.350   2.821   0.107 -0.1048 -0.4535 -0.1761
  218_EC     O3 1305   0.351   2.951   0.066 -0.3154 -0.5368 -0.4453
  218_EC     O4 1306   0.290   2.823   0.229 -0.2589  0.0741 -0.2547
  218_EC     C5 1307   0.389   3.021   0.185 -0.2056 -0.7569 -0.3492
  218_EC     C6 1308   0.348   2.932   0.301 -0.2691 -0.1509  0.0998
  219_EC     O1 1309   0.351   3.700   1.141  0.2892  0.0046 -0.3701
  219_EC     C2 1310   0.323   3.600   1.201 -0.3403 -0.0826 -0.8000
  219_EC     O3 1311   0.360   3.474   1.164  0.1201 -0.0853 -0.3435
  219_EC     O4 1312   0.205   3.575   1.263  0.0015  0.1777 -0.0295
  219_EC     C5 1313   0.326   3.378   1.264  0.0418  0.2997  0.0009
  219_EC     C6 1314   0.208   3.448   1.329  0.0189  0.2180  0.0478
  220_EC     O1 1315   2.933   0.105   1.150  0.8643 -0.0806 -0.4498
  220_EC     C2 1316   2.837   0.034   1.132  0.6175  0.0096  0.4242
  220_EC     O3 1317   2.789   3.912   1.208 -0.2078 -0.0147 -0.1227
  220_EC     O4 1318   2.798   0.008   1.004  0.3356  0.2170  0.4659
  220_EC     C5 1319   2.655   3.904   1.157 -0.0974  0.2408 -0.4572
  220_EC     C6 1320   2.665   3.935   1.009  0.4609 -0.2189 -0.5188
  221_EC     O1 1321   3.928   3.865   1.916 -0.5803  0.5566 -0.2515
  221_EC     C2 1322   3.842   3.848   1.998  0.1584 -0.2395  0.3755
  221_EC     O3 1323   3.816   3.928   2.105  0.0543 -0.4326  0.4973
  221_EC     O4 1324   3.763   3.737   2.006 -0.0125 -0.1202  0.3436
  221_EC     C5 1325   3.707   3.870   2.176 -0.4862  0.2472  0.2427
  221_EC     C6 1326   3.643   3.784   2.068 -0.0479 -0.4114  0.4975
  222_EC     O1 1327   0.570   0.836   0.261 -0.1440  0.3566 -0.4479
  222_EC     C2 1328   0.585   0.823   0.143  0.4383  0.3859 -0.3819
  222_EC     O3 1329   0.578   0.934   0.064 -0.6609  0.3248 -0.3882
  222_EC     O4 1330   0.673   0.743   0.077  0.2137  0.0013 -0.2171
  222_EC     C5 1331   0.570   0.884   3.908 -0.3140 -0.6826 -0.0442
  222_EC     C6 1332   0.635   0.747   3.917 -0.3339 -0.6953 -0.0925
  223_EC     O1 1333   0.201   2.914   3.350  0.6625 -0.1102  0.3797
  223_EC     C2 1334   0.234   3.026   3.321 -0.2319  0.0018 -0.2543
  223_EC     O3 1335   0.158   3.103   3.238  0.0141  0.8528  0.2948
  223_EC     O4 1336   0.343   3.100   3.354 -0.6144  0.3950  0.1376
  223_EC     C5 1337   0.225   3.225   3.206  0.1935  0.7619  0.3236
  223_EC     C6 1338   0.310   3.237   3.332  0.2399  0.6343  0.3050
  224_EC     O1 1339   1.586   3.592   3.161 -0.5017  0.4584  0.1813
  224_EC     C2 1340   1.582   3.489   3.221  0.5535  0.1916 -0.1855
  224_EC     O3 1341   1.583   3.495   3.357 -0.0780  0.1463 -0.1757
  224_EC     O4 1342   1.666   3.383   3.201 -0.2923 -0.5753  0.2456
  224_EC     C5 1343   1.566   3.360   3.401 -0.2891  0.0585 -0.5182
  224_EC     C6 1344   1.624   3.278   3.288  0.2244 -0.7327  0.3067
  225_EC     O1 1345   3.128   2.147   1.795  0.1478  0.0001 -0.5627
  225_EC     C2 1346   3.147   2.153   1.914  0.0517  0.3722 -0.5663
  225_EC     O3 1347   3.272   2.167   1.965  0.0048 -0.1021 -0.3194
  225_EC     O4 1348   3.056   2.202   2.003  0.2848 -0.0819 -0.0764
  225_EC     C5 1349   3.254   2.166   2.107 -0.1886  0.1408 -0.3397
  225_EC     C6 1350   3.120   2.235   2.127 -0.2488 -0.1269  0.2153
  226_EC     O1 1351   2.849   0.615   1.511  0.2138 -0.3108 -0.1008
  226_EC     C2 1352   2.913   0.514   1.525  0.5368 -0.1247 -0.2145
  226_EC     O3 1353   2.952   0.436   1.421 -0.4604 -0.4004 -0.3923
  226_EC     O4 1354   3.021   0.513   1.606  0.2623 -0.0190  0.1560
  226_EC     C5 1355   3.014   0.320   1.478 -0.1894 -0.1477 -0.1744
  226_EC     C6 1356   3.053   0.374   1.615  0.5273  0.0020 -0.4303
  227_EC     O1 1357   1.322   1.492   0.155 -0.4428  0.3700  0.1270
  227_EC     C2 1358   1.391   1.509   0.252 -0.1298  0.5165 -0.1202
  227_EC     O3 1359   1.349   1.574   0.364  0.1345  0.3069  0.1011
  227_EC     O4 1360   1.523   1.537   0.244  0.0626 -0.3360  0.0018
  227_EC     C5 1361   1.450   1.559   0.464 -0.2133 -0.7868  0.3002
  227_EC     C6 1362   1.571   1.526   0.378 -0.2965 -0.5955  0.1100
  228_EC     O1 1363   1.496   3.806   0.061 -0.1226  0.3724  0.2269
  228_EC     C2 1364   1.437   3.717   0.006  0.0393  0.1163  0.4622
  228_EC     O3 1365   1.302   3.714   3.968  0.0346  0.1112  0.5022
  228_EC     O4 1366   1.497   3.612   3.922  0.1532  0.4074  0.0707
  228_EC     C5 1367   1.275   3.581   3.923  0.5394  0.1655  0.0270
  228_EC     C6 1368   1.398   3.546   3.842  0.4538  0.1722 -0.1061
  229_EC     O1 1369   0.144   3.268   0.556  0.3050 -0.0280  0.0765
  229_EC     C2 1370   0.192   3.326   0.463 -0.0800 -0.3156 -0.3109
  229_EC     O3 1371   0.188   3.461   0.442  0.1880 -0.2698 -0.0664
  229_EC     O4 1372   0.239   3.263   0.352  0.4828 -0.3485 -0.0538
  229_EC     C5 1373   0.286   3.482   0.340  0.1267 -0.3631 -0.1444
  229_EC     C6 1374   0.274   3.359   0.252  0.4222 -0.4043 -0.1279
  230_EC     O1 1375   2.926   3.013   1.069  0.3364  0.2043 -0.7763
  230_EC     C2 1376   2.891   3.115   1.122 -0.3476 -0.0560 -0.7171
  230_EC     O3 1377   2.955   3.235   1.126 -0.2788 -0.1023 -0.4439
  230_EC     O4 1378   2.789   3.121   1.212 -0.0091  0.3279 -0.3538
  230_EC     C5 1379   2.859   3.324   1.183  0.1241 -0.0644  0.1877
  230_EC     C6 1380   2.794   3.239   1.292  0.3904 -0.1253  0.2990
  231_EC     O1 1381   2.967   2.640   1.790  0.2794 -0.0949 -0.0744
  231_EC     C2 1382   2.867   2.706   1.792  0.0378 -0.4523 -0.1906
  231_EC     O3 1383   2.834   2.781   1.900  0.3026 -0.6759  0.0449
  231_EC     O4 1384   2.842   2.789   1.687 -0.2116  0.0193  0.2373
  231_EC     C5 1385   2.702   2.822   1.865  0.3758  0.2477  0.7885
  231_EC     C6 1386   2.706   2.824   1.713 -0.1392 -0.0882  0.7666
  232_EC     O1 1387   1.256   3.845   0.630 -0.0706 -0.5228  0.1572
  232_EC     C2 1388   1.162   3.802   0.690  0.2502  0.0853  1.1084
  232_EC     O3 1389   1.167   3.680   0.749  0.0658 -0.5967 -0.2433
  232_EC     O4 1390   1.032   3.835   0.665  0.4842  0.2462  0.0712
  232_EC     C5 1391   1.047   3.673   0.827  0.1043  0.2693 -0.0956
  232_EC     C6 1392   0.949   3.769   0.761  0.2687  0.5802  0.1139
  233_EC     O1 1393   2.576   3.629   3.095 -0.3065 -0.1895 -0.1315
  233_EC     C2 1394   2.536   3.642   2.982  0.2739 -0.2736 -0.3499
  233_EC     O3 1395   2.505   3.758   2.919  0.2988  0.0198  0.1718
  233_EC     O4 1396   2.576   3.550   2.891  0.8352 -0.1090 -0.2788
  233_EC     C5 1397   2.460   3.723   2.788  0.8238  0.2765 -0.0830
  233_EC     C6 1398   2.497   3.576   2.774  0.2055  0.0885  0.1849
  234_EC     O1 1399   2.263   2.635   2.749  0.3501 -0.3720 -0.5466
  234_EC     C2 1400   2.328   2.598   2.655  0.6102 -0.0823 -0.4812
  234_EC     O3 1401   2.454   2.553   2.681  0.5509 -0.0541 -0.1311
  234_EC     O4 1402   2.282   2.500   2.573  0.2655 -0.2978 -0.0319
  234_EC     C5 1403   2.508   2.517   2.553 -0.0991 -0.1661 -0.3780
  234_EC     C6 1404   2.382   2.493   2.472 -0.0935 -0.1128 -0.4029
  235_EC     O1 1405   0.575   3.189   3.566 -0.5265  0.1059 -0.8908
  235_EC     C2 1406   0.558   3.072   3.588  0.1168  0.1615 -0.0280
  235_EC     O3 1407   0.617   2.970   3.519 -0.2635 -0.0568 -0.0326
  235_EC     O4 1408   0.435   3.019   3.607  0.2694 -0.2685 -0.2141
  235_EC     C5 1409   0.590   2.859   3.605  0.2298  0.0494  0.2614
  235_EC     C6 1410   0.448   2.883   3.650  0.0961 -0.2205 -0.0100
  236_EC     O1 1411   2.273   0.785   3.182  0.6349  0.4305  0.6073
  236_EC     C2 1412   2.208   0.819   3.277 -0.1094  0.7349 -0.0089
  236_EC     O3 1413   2.205   0.943   3.333 -1.2955  0.5307  0.4093
  236_EC     O4 1414   2.091   0.759   3.309  0.1009  0.1991 -0.2336
  236_EC     C5 1415   2.160   0.911   3.464  0.0012 -0.0569  0.7216
  236_EC     C6 1416   2.056   0.803   3.441  0.0232  0.1210 -0.2278
  237_EC     O1 1417   3.156   1.127   0.258 -0.4638  0.2404 -0.4968
  237_EC     C2 1418   3.181   1.241   0.230  0.3589  0.1258 -0.2543
  237_EC     O3 1419   3.282   1.275   0.147  0.5548 -0.0742 -0.0993
  237_EC     O4 1420   3.080   1.329   0.205  0.2882  0.0460 -0.2476
  237_EC     C5 1421   3.281   1.417   0.128 -0.2122 -0.0644  0.0165
  237_EC     C6 1422   3.146   1.454   0.188 -0.2240  0.3187 -0.2451
  238_EC     O1 1423   0.361   0.605   0.208  0.4552  0.1239 -0.7814
  238_EC     C2 1424   0.410   0.507   0.160  0.3604 -0.2205 -0.1767
  238_EC     O3 1425   0.517   0.506   0.076  0.4965  0.2163 -0.0121
  238_EC     O4 1426   0.358   0.381   0.161 -0.6499  0.1851 -0.3879
  238_EC     C5 1427   0.517   0.384   0.001 -0.2711 -0.0237  0.3663
  238_EC     C6 1428   0.444   0.288   0.093 -0.0038  0.0213  0.6284
  239_EC     O1 1429   3.602   1.256   0.093 -0.2546 -0.3313  0.8205
  239_EC     C2 1430   3.536   1.189   0.019  0.4195 -0.8371  0.6649
  239_EC     O3 1431   3.436   1.104   0.054 -0.5952  0.0796  0.0380
  239_EC     O4 1432   3.583   1.138   3.880 -0.0340  0.1161  0.0554
  239_EC     C5 1433   3.372   1.069   3.909 -0.1914 -0.2959 -0.0678
  239_EC     C6 1434   3.469   1.109   3.799 -0.0941  0.0820  0.1520
  240_EC     O1 1435   0.468   2.150   1.061 -0.1160 -0.3465 -0.1043
  240_EC     C2 1436   0.378   2.096   1.120 -0.0911  0.3543  0.6029
  240_EC     O3 1437   0.398   2.027   1.235  0.4416  0.0054  0.3022
  240_EC     O4 1438   0.288   2.016   1.056 -0.1862  0.6715  0.3350
  240_EC     C5 1439   0.268   1.996   1.285  0.0673  0.4973 -0.3463
  240_EC     C6 1440   0.195   1.969   1.154 -0.3603  0.2050 -0.0499
  241_EC     O1 1441   3.929   1.449   3.247 -0.4211  0.5275 -0.1274
  241_EC     C2 1442   3.837   1.411   3.314 -0.2238 -0.0645 -0.1827
  241_EC     O3 1443   3.842   1.286   3.367  0.2974  0.0623  0.0730
  241_EC     O4 1444   3.756   1.489   3.391  0.1878  0.1432  0.0454
  241_EC     C5 1445   3.705   1.267   3.404  0.3581 -0.0070  0.2640
  241_EC     C6 1446   3.642   1.405   3.410  0.3518 -0.0137  0.3455
  242_EC     O1 1447   0.805   1.800   0.559  0.3597  0.1924 -0.0507
  242_EC     C2 1448   0.747   1.778   0.456  0.6334 -0.2285 -0.1115
  242_EC     O3 1449   0.765   1.853   0.344  0.0950  0.0780  0.0090
  242_EC     O4 1450   0.727   1.651   0.409 -0.1059 -0.1745  0.0538
  242_EC     C5 1451   0.660   1.811   0.257  0.1675  0.2770 -0.1733
  242_EC     C6 1452   0.655   1.662   0.286  0.6188  0.2263 -0.3432
  243_EC     O1 1453   3.894   2.231   3.090  0.8280  0.1139 -0.5836
  243_EC     C2 1454   3.926   2.208   3.204 -0.0496  0.3567 -0.2758
  243_EC     O3 1455   0.071   2.164   3.234 -0.2833 -0.1308 -0.0121
  243_EC     O4 1456   3.887   2.293   3.303 -0.0843  0.0420 -0.0175
  243_EC     C5 1457   0.071   2.148   3.376  0.1076  0.1553  0.0228
  243_EC     C6 1458   3.941   2.241   3.424  0.0796  0.1551 -0.0409
  244_EC     O1 1459   2.611   2.617   2.248  0.1205  0.3686 -0.0568
  244_EC     C2 1460   2.531   2.580   2.167 -0.0231  0.1739  0.1740
  244_EC     O3 1461   2.575   2.546   2.043 -0.4308  0.3380 -0.0218
  244_EC     O4 1462   2.437   2.487   2.199 -0.2265  0.3469  0.0839
  244_EC     C5 1463   2.456   2.519   1.969 -0.2282 -0.0238 -0.2183
  244_EC     C6 1464   2.358   2.486   2.080 -0.1462  0.5521  0.0277
  245_EC     O1 1465   3.488   2.356   3.905  0.1725  0.4605 -0.1492
  245_EC     C2 1466   3.572   2.271   3.894 -0.1463  0.0646  0.3887
  245_EC     O3 1467   3.640   2.240   3.781 -0.4053 -0.8508  0.4775
  245_EC     O4 1468   3.668   2.254   0.011  0.0395  0.0243  0.1924
  245_EC     C5 1469   3.716   2.122   3.807  0.1371 -0.6285 -0.0656
  245_EC     C6 1470   3.728   2.128   3.959 -0.0375  0.0516 -0.0769
  246_EC     O1 1471   1.567   1.024   1.638  0.5509  0.1187  0.3733
  246_EC     C2 1472   1.503   1.121   1.667 -0.5091 -0.4919  0.1151
  246_EC     O3 1473   1.420   1.123   1.775  0.1900 -0.2923  0.6546
  246_EC     O4 1474   1.445   1.206   1.579  0.5298  0.0681 -0.0433
  246_EC     C5 1475   1.330   1.234   1.771 -0.2573 -0.6782 -0.4253
  246_EC     C6 1476   1.401   1.313   1.662  0.0272 -0.2286  0.0766
  247_EC     O1 1477   0.300   1.169   0.080  0.2143 -0.0485  0.0789
  247_EC     C2 1478   0.283   1.066   0.139 -0.0150 -0.1790 -0.2090
  247_EC     O3 1479   0.340   1.037   0.259 -0.2563 -0.2556 -0.1112
  247_EC     O4 1480   0.171   0.989   0.130  0.1524 -0.3811 -0.5671
  247_EC     C5 1481   0.250   0.950   0.328 -0.3454 -0.0700  0.0050
  247_EC     C6 1482   0.188   0.874   0.212 -0.1917 -0.0811 -0.0698
  248_EC     O1 1483   0.474   1.150   1.314  0.3095 -0.2463 -0.2183
  248_EC     C2 1484   0.388   1.072   1.344 -0.1552  0.2213 -0.3202
  248_EC     O3 1485   0.274   1.099   1.412 -0.0978 -0.1201 -0.0859
  248_EC     O4 1486   0.367   0.957   1.273 -0.2314  0.3080 -0.4392
  248_EC     C5 1487   0.205   0.975   1.429  0.3109 -0.2997  0.2573
  248_EC     C6 1488   0.235   0.907   1.297  0.0026 -0.0750  0.0707
  249_EC     O1 1489   2.549   0.938   1.027 -0.1671 -0.4966 -0.3710
  249_EC     C2 1490   2.630   0.905   1.110 -0.3560 -0.0973 -0.0231
  249_EC     O3 1491   2.606   0.919   1.243  0.1630  0.0799  0.0559
  249_EC     O4 1492   2.766   0.901   1.102 -0.3551  0.2486 -0.2049
  249_EC     C5 1493   2.695   0.836   1.317  0.3752 -0.1794 -0.4883
  249_EC     C6 1494   2.811   0.833   1.219  0.5026  0.5402 -0.3623
  250_EC     O1 1495   3.427   1.899   3.786 -0.2966 -0.2578  0.1524
  250_EC     C2 1496   3.391   1.928   3.897 -0.1910 -0.5018  0.2526
  250_EC     O3 1497   3.428   2.041   3.963 -0.5930  0.0220 -0.4006
  250_EC     O4 1498   3.267   1.896   3.943 -0.4853 -0.0115 -0.1782
  250_EC     C5 1499   3.384   2.025   0.121 -0.0282 -0.2685 -0.2482
  250_EC     C6 1500   3.275   1.920   0.106 -0.4073  0.1162 -0.2043
  251_EC     O1 1501   3.083   1.931   1.376 -0.0079  0.0840 -0.1758
  251_EC     C2 1502   3.193   1.969   1.409 -0.1915  0.4802 -0.0108
  251_EC     O3 1503   3.241   2.096   1.402  0.2181  0.3215 -0.0779
  251_EC     O4 1504   3.283   1.885   1.467 -0.1104  0.1749 -0.5697
  251_EC     C5 1505   3.345   2.104   1.500  0.2000 -0.1190 -0.0206
  251_EC     C6 1506   3.400   1.962   1.497  0.0794 -0.1595 -0.4543
  252_EC     O1 1507   1.751   3.722   2.708 -0.0551  0.0344  1.0833
  252_EC     C2 1508   1.762   3.837   2.674  0.1569 -0.2156  0.2856
  252_EC     O3 1509   1.884   3.883   2.636 -0.1025  0.2364 -0.0006
  252_EC     O4 1510   1.718   3.941   2.749 -0.1394 -0.1473  0.0217
  252_EC     C5 1511   1.870   0.040   2.592  0.1225  0.2804  0.0645
  252_EC     C6 1512   1.747   0.079   2.673 -0.0603 -0.1743  0.0104
  253_EC     O1 1513   1.719   2.864   0.114 -0.0139  0.0093  0.0456
  253_EC     C2 1514   1.761   2.796   0.203 -0.2204  0.0551  0.1771
  253_EC     O3 1515   1.707   2.674   0.233 -0.1253 -0.2052 -0.7052
  253_EC     O4 1516   1.876   2.822   0.271 -0.1315  0.3131 -0.0709
  253_EC     C5 1517   1.761   2.635   0.359  0.2635 -0.0547 -0.8216
  253_EC     C6 1518   1.864   2.742   0.389 -0.2228  0.2308 -0.1358
  254_EC     O1 1519   3.903   0.372   3.238 -0.3354 -0.3773  0.4659
  254_EC     C2 1520   3.829   0.465   3.254  0.0088 -0.0711  0.2966
  254_EC     O3 1521   3.814   0.531   3.372 -0.4780 -0.0537  0.2289
  254_EC     O4 1522   3.821   0.559   3.155 -0.1842 -0.1971  0.1907
  254_EC     C5 1523   3.706   0.620   3.346 -0.1192  0.4159  0.3245
  254_EC     C6 1524   3.717   0.648   3.196  0.0377  0.0292  0.2651
  255_EC     O1 1525   1.379   0.451   0.757 -0.1010 -0.1682  0.2822
  255_EC     C2 1526   1.315   0.537   0.811 -0.1492  0.2348 -0.4077
  255_EC     O3 1527   1.326   0.666   0.769  0.4750  0.3470  0.0952
  255_EC     O4 1528   1.320   0.545   0.946  0.1526  0.2822 -0.4208
  255_EC     C5 1529   1.241   0.739   0.859  0.5921  0.1738  0.3474
  255_EC     C6 1530   1.232   0.652   0.983 -0.0274 -0.0565  0.1474
  256_EC     O1 1531   3.625   0.197   1.082  0.3467 -0.2083  0.1564
  256_EC     C2 1532   3.528   0.203   1.013  0.5284  0.3142 -0.0671
  256_EC     O3 1533   3.424   0.290   1.026 -0.3051 -0.6377 -0.1284
  256_EC     O4 1534   3.492   0.115   0.915  0.1545  0.6328 -0.2162
  256_EC     C5 1535   3.313   0.252   0.946 -0.6671 -0.0512  0.0912
  256_EC     C6 1536   3.391   0.181   0.837 -0.4079  0.1884  0.1211
  257_EC     O1 1537   2.214   3.503   2.920 -0.0355 -0.1414 -0.2223
  257_EC     C2 1538   2.094   3.501   2.918 -0.0514  0.1872  0.2975
  257_EC     O3 1539   2.016   3.534   3.024  0.0055  0.4238  0.2678
  257_EC     O4 1540   2.021   3.411   2.847  0.5731  0.0038 -0.1226
  257_EC     C5 1541   1.881   3.537   2.977 -0.0761 -0.1099  0.4531
  257_EC     C6 1542   1.890   3.468   2.842  0.5947  0.1005  0.3823
  258_EC     O1 1543   2.162   2.144   0.263 -0.5181 -0.0244  0.2324
  258_EC     C2 1544   2.090   2.075   0.197  0.3135 -0.0878 -0.6220
  258_EC     O3 1545   2.041   2.113   0.076  0.2901  0.4832 -0.4346
  258_EC     O4 1546   2.008   1.976   0.243  0.2147  0.1055 -0.3818
  258_EC     C5 1547   1.984   1.997   0.014  0.0533  0.4111 -0.0839
  258_EC     C6 1548   1.972   1.898   0.129 -0.1849  0.1818 -0.3067
  259_EC     O1 1549   1.176   3.973   3.057  0.1096 -0.8453  0.4125
  259_EC     C2 1550   1.224   0.082   3.123  0.1035 -0.5147 -0.0196
  259_EC     O3 1551   1.341   0.059   3.189  0.4156  0.0238 -0.3803
  259_EC     O4 1552   1.144   0.142   3.215  0.1118 -0.4679 -0.0429
  259_EC     C5 1553   1.362   0.177   3.267 -0.6348 -0.1550  0.1955
  259_EC     C6 1554   1.228   0.249   3.259 -0.3771  0.2277 -0.7759
  260_EC     O1 1555   0.109   2.824   2.926 -0.0065 -0.0697  0.1916
  260_EC     C2 1556   0.089   2.743   3.013 -0.3496 -0.0287  0.1503
  260_EC     O3 1557   0.091   2.609   2.994  0.1902 -0.0538  0.3665
  260_EC     O4 1558   0.019   2.763   3.128 -0.4120  0.2516  0.0655
  260_EC     C5 1559   0.024   2.538   3.100  0.2832 -0.3444  0.2307
  260_EC     C6 1560   0.029   2.645   3.208 -0.2169  0.1005 -0.1816
  261_EC     O1 1561   1.678   3.898   2.374  0.1381  0.1198  0.5959
  261_EC     C2 1562   1.615   0.014   2.338  0.2144 -0.1986 -0.4161
  261_EC     O3 1563   1.487   0.018   2.291  0.2611  0.6435 -0.4864
  261_EC     O4 1564   1.663   0.140   2.351 -0.0098 -0.1590  0.0247
  261_EC     C5 1565   1.446   0.150   2.255 -0.7402  0.4884  0.0354
  261_EC     C6 1566   1.577   0.225   2.275 -0.3592 -0.2430  0.3224
  262_EC     O1 1567   0.364   3.816   1.471 -0.5667  0.4361  0.3002
  262_EC     C2 1568   0.446   3.896   1.506 -0.0888  0.1735 -0.1890
  262_EC     O3 1569   0.413   0.044   1.542  0.0225  0.2774 -0.4521
  262_EC     O4 1570   0.565   3.909   1.442  0.1293  0.3450  0.2404
  262_EC     C5 1571   0.536   0.086   1.602 -0.0625  0.7743 -0.6134
  262_EC     C6 1572   0.644   0.001   1.538  0.1490  0.4607  0.1391
  263_EC     O1 1573   1.898   3.697   0.815 -0.1995 -0.0613  0.0652
  263_EC     C2 1574   1.833   3.690   0.714  0.5063  0.0806 -0.4035
  263_EC     O3 1575   1.817   3.803   0.639  0.0646  0.1901 -0.1463
  263_EC     O4 1576   1.782   3.580   0.651  0.5135 -0.0818 -0.1236
  263_EC     C5 1577   1.720   3.764   0.541  0.4329 -0.1785 -0.3702
  263_EC     C6 1578   1.750   3.617   0.517  0.3752 -0.2289 -0.1307
  264_EC     O1 1579   0.710   2.939   2.774  0.1278  0.5260 -0.6899
  264_EC     C2 1580   0.599   2.981   2.796 -0.1322 -0.5422  0.1113
  264_EC     O3 1581   0.505   2.910   2.864 -0.2693 -0.3230  0.1527
  264_EC     O4 1582   0.527   3.027   2.691  0.2678  0.3277  0.2129
  264_EC     C5 1583   0.396   3.000   2.885  0.7983  0.9088  0.5590
  264_EC     C6 1584   0.409   3.076   2.755 -0.4324 -0.4963 -0.4237
  265_EC     O1 1585   3.368   0.741   3.097  0.2603  0.5769  0.2394
  265_EC     C2 1586   3.356   0.799   2.993  0.1344 -0.1177 -0.1324
  265_EC     O3 1587   3.239   0.861   2.959  0.0536 -0.4036 -0.3846
  265_EC     O4 1588   3.435   0.900   2.949 -0.0347  0.0622 -0.0219
  265_EC     C5 1589   3.256   0.887   2.819 -0.2067 -0.4934 -0.4320
  265_EC     C6 1590   3.406   0.902   2.809 -0.2525  0.2896  0.0251
  266_EC     O1 1591   3.436   2.547   1.381 -0.0964  0.0083  0.1974
  266_EC     C2 1592   3.472   2.639   1.312  0.5827 -0.1318  0.3565
  266_EC     O3 1593   3.417   2.763   1.320 -0.0488 -0.3658 -0.2678
  266_EC     O4 1594   3.604   2.663   1.287  0.5135 -0.0405  0.0788
  266_EC     C5 1595   3.489   2.847   1.230  0.0338  0.0107  0.1458
  266_EC     C6 1596   3.601   2.757   1.180 -0.0111 -0.0233  0.1059
  267_EC     O1 1597   0.649   3.894   1.889 -0.5892  0.2144  0.0571
  267_EC     C2 1598   0.597   3.856   1.990 -0.0605 -0.0542  0.2270
  267_EC     O3 1599   0.602   3.726   2.029 -0.1624  0.0442  0.5709
  267_EC     O4 1600   0.628   3.926   2.103 -0.3708  0.4832 -0.0176
  267_EC     C5 1601   0.521   3.723   2.147  0.0076 -0.1360  0.6841
  267_EC     C6 1602   0.585   3.845   2.212  0.3335  0.0803 -0.0325
  268_EC     O1 1603   3.410   2.177   0.855  0.0292 -0.1470  0.2348
  268_EC     C2 1604   3.492   2.254   0.897 -0.3732  0.0026  0.7645
  268_EC     O3 1605   3.611   2.222   0.955 -0.1081  0.0931  0.2801
  268_EC     O4 1606   3.464   2.376   0.950 -0.2887  0.3771 -0.0281
  268_EC     C5 1607   3.697   2.336   0.957 -0.1039  0.0992 -0.1180
  268_EC     C6 1608   3.590   2.444   0.955 -0.1393  0.0770  0.3974
  269_EC     O1 1609   3.144   2.165   0.404  0.3480 -0.1113 -0.1134
  269_EC     C2 1610   3.176   2.118   0.510  0.6029  0.5016  0.0844
  269_EC     O3 1611   3.085   2.073   0.600 -0.1894  1.3398 -0.2721
  269_EC     O4 1612   3.267   2.017   0.512  0.0723  0.0151 -0.1390
  269_EC     C5 1613   3.165   2.040   0.714 -0.5073  0.0834 -0.3959
  269_EC     C6 1614   3.292   1.987   0.650 -0.5658 -0.4096 -0.1081
  270_EC     O1 1615   3.548   0.311   3.057 -0.2679  0.6497 -0.1293
  270_EC     C2 1616   3.459   0.296   2.977 -0.0661 -0.2211 -0.2057
  270_EC     O3 1617   3.481   0.209   2.875  0.1948  0.0456 -0.3766
  270_EC     O4 1618   3.406   0.402   2.910 -0.2110 -0.3023 -0.2191
  270_EC     C5 1619   3.365   0.215   2.792 -0.2949 -0.2478  0.2895
  270_EC     C6 1620   3.311   0.355   2.815 -0.0172 -0.0004 -0.5615
  271_EC     O1 1621   0.109   2.575   0.880  0.4320 -0.2308 -0.3034
  271_EC     C2 1622   0.225   2.570   0.911  0.3759 -0.2628 -0.1006
  271_EC     O3 1623   0.286   2.652   1.000 -0.3970  0.0223  0.1780
  271_EC     O4 1624   0.319   2.521   0.827  0.4506  0.0478 -0.1978
  271_EC     C5 1625   0.419   2.602   1.016 -0.2991  0.1742 -0.1426
  271_EC     C6 1626   0.435   2.497   0.908  0.6608  0.5192 -0.3496
  272_EC     O1 1627   3.776   2.784   3.486 -0.2950  0.6430  0.3844
  272_EC     C2 1628   3.753   2.692   3.560  0.2157 -0.3102 -0.6011
  272_EC     O3 1629   3.631   2.681   3.620  0.4007  0.2501 -0.1014
  272_EC     O4 1630   3.840   2.635   3.647 -0.3987  0.2400  0.4047
  272_EC     C5 1631   3.627   2.545   3.664  0.4017  0.1455 -0.4208
  272_EC     C6 1632   3.774   2.514   3.688  0.3153 -0.5707 -0.7842
  273_EC     O1 1633   3.480   2.506   2.272  0.0450  0.1558  0.5013
  273_EC     C2 1634   3.471   2.616   2.225  0.1221 -0.1165 -0.1657
  273_EC     O3 1635   3.565   2.669   2.142  0.3228  0.1741  0.2478
  273_EC     O4 1636   3.422   2.719   2.299 -0.7474 -0.7108  0.1010
  273_EC     C5 1637   3.499   2.787   2.095 -0.4789 -0.3792 -0.0216
  273_EC     C6 1638   3.406   2.829   2.208 -0.1444 -0.4686  0.2868
  274_EC     O1 1639   3.717   2.964   0.011 -0.0763 -0.0605  0.5877
  274_EC     C2 1640   3.617   2.901   3.966 -0.2067  0.2254  0.3631
  274_EC     O3 1641   3.589   2.855   3.841  0.4341  0.0169  0.2911
  274_EC     O4 1642   3.494   2.932   0.035 -0.1895  0.0519  0.5238
  274_EC     C5 1643   3.473   2.773   3.854  0.1996  0.3012  0.0206
  274_EC     C6 1644   3.421   2.811   0.014  0.1391 -0.0720  0.1010
  275_EC     O1 1645   0.943   1.273   2.448  0.6340  0.0941 -0.0335
  275_EC     C2 1646   0.914   1.159   2.426  0.5363  0.2742 -0.8872
  275_EC     O3 1647   0.926   1.055   2.513 -0.2784  0.4008 -0.6172
  275_EC     O4 1648   0.843   1.107   2.322  0.0932 -0.6243 -0.1425
  275_EC     C5 1649   0.924   0.935   2.436  0.4723  0.1598 -0.2696
  275_EC     C6 1650   0.815   0.967   2.336  0.2936 -0.6866 -0.3544
  276_EC     O1 1651   0.067   3.193   0.005 -0.0174 -0.0325  0.3883
  276_EC     C2 1652   0.020   3.147   0.106  0.1147 -0.4913  0.2459
  276_EC     O3 1653   0.013   3.224   0.219  0.0821 -0.0431 -0.0580
  276_EC     O4 1654   0.076   3.033   0.153  0.4919 -0.1448  0.6538
  276_EC     C5 1655   3.922   3.136   0.307  0.2386 -0.0064  0.1046
  276_EC     C6 1656   3.968   2.999   0.261 -0.2334 -0.1542  0.0686
  277_EC     O1 1657   2.907   3.451   0.113  0.0558 -0.0989 -0.0709
  277_EC     C2 1658   2.870   3.552   0.058 -0.4170 -0.2388 -0.0161
  277_EC     O3 1659   2.931   3.593   3.922 -0.3664  0.0384  0.1110
  277_EC     O4 1660   2.743   3.598   0.055 -0.3732 -0.0956  0.2669
  277_EC     C5 1661   2.886   3.728   3.905 -0.2348  0.0632 -0.0510
  277_EC     C6 1662   2.756   3.732   0.007 -0.0634 -0.1350  0.2440
  278_EC     O1 1663   1.904   2.384   0.494  0.1321 -0.3311  0.7318
  278_EC     C2 1664   2.021   2.404   0.481  0.0813 -0.1236  0.5917
  278_EC     O3 1665   2.060   2.522   0.425 -0.1077 -0.2481  0.1952
  278_EC     O4 1666   2.110   2.393   0.584  0.2033 -0.0188  0.4991
  278_EC     C5 1667   2.200   2.504   0.402 -0.2652 -0.7398 -0.4216
  278_EC     C6 1668   2.236   2.418   0.522 -0.0460 -0.2073 -0.1044
  279_EC     O1 1669   2.473   2.541   2.987  0.3472 -0.0271 -0.8897
  279_EC     C2 1670   2.382   2.465   2.968 -0.2874  0.5488 -0.2350
  279_EC     O3 1671   2.371   2.384   2.859 -0.4151  0.1505  0.0746
  279_EC     O4 1672   2.280   2.447   3.056 -0.1151 -0.2108 -0.1869
  279_EC     C5 1673   2.256   2.303   2.884 -0.1520 -0.1371  0.3744
  279_EC     C6 1674   2.175   2.396   2.972 -0.3065  0.3872 -0.3148
  280_EC     O1 1675   3.749   3.426   2.057  0.4877  0.2742  0.0045
  280_EC     C2 1676   3.855   3.463   2.098  0.5185 -0.0637  0.2379
  280_EC     O3 1677   3.868   3.546   2.205 -0.2475  0.3236  0.0357
  280_EC     O4 1678   3.955   3.494   2.010  0.0906  0.5701 -0.0329
  280_EC     C5 1679   0.029   3.569   2.218 -0.1271 -0.1784 -0.3267
  280_EC     C6 1680   0.091   3.509   2.093  0.2701 -0.1443 -0.1463
  281_EC     O1 1681   1.311   0.852   0.002  0.1469 -0.0695  0.3442
  281_EC     C2 1682   1.343   0.739   3.954 -0.3116 -0.1487  0.1132
  281_EC     O3 1683   1.286   0.677   3.848  0.3046  0.1636 -0.4010
  281_EC     O4 1684   1.470   0.698   0.000 -0.0364  0.4442 -0.3238
  281_EC     C5 1685   1.355   0.552   3.837 -0.0842 -0.0719 -0.1606
  281_EC     C6 1686   1.479   0.567   3.924 -0.0061  0.4617 -0.3612
  282_EC     O1 1687   3.143   2.674   1.241  0.1875 -0.1205 -0.1036
  282_EC     C2 1688   3.125   2.766   1.316  0.4525 -0.1469 -0.0070
  282_EC     O3 1689   3.198   2.880   1.303 -0.0608  0.1597 -0.2219
  282_EC     O4 1690   3.120   2.761   1.452  0.2017  0.4456  0.0052
  282_EC     C5 1691   3.147   2.978   1.393  0.2256 -0.3008  0.4493
  282_EC     C6 1692   3.070   2.890   1.490 -0.0343  0.1619  0.6677
  283_EC     O1 1693   2.959   3.129   1.938  0.7162  0.3879  0.5664
  283_EC     C2 1694   2.937   3.059   2.033  0.2027  0.1639  0.2852
  283_EC     O3 1695   2.812   3.027   2.076 -0.0069 -0.3633 -0.6734
  283_EC     O4 1696   2.992   3.077   2.156 -0.3151  0.2244  0.5098
  283_EC     C5 1697   2.828   2.920   2.169  0.4946  0.1983 -0.1019
  283_EC     C6 1698   2.958   2.962   2.234  0.4486 -0.1901  0.2443
  284_EC     O1 1699   0.091   0.509   2.000  0.0188 -0.4116  0.2865
  284_EC     C2 1700   3.963   0.456   2.001 -0.0091 -0.3520  0.4224
  284_EC     O3 1701   3.867   0.476   1.908  0.3144 -0.2150  0.1145
  284_EC     O4 1702   3.946   0.328   2.042 -0.2861 -0.4579 -0.0201
  284_EC     C5 1703   3.753   0.413   1.968 -0.1160 -0.0996 -0.5640
  284_EC     C6 1704   3.806   0.309   2.066 -0.3696  0.7677  0.5184
  285_EC     O1 1705   3.314   3.971   2.415  0.2507 -0.3722  0.2754
  285_EC     C2 1706   3.387   0.087   2.407 -0.3695  0.0549 -0.5075
  285_EC     O3 1707   3.501   0.090   2.334  0.0607  0.2605  0.1610
  285_EC     O4 1708   3.425   0.162   2.514 -0.0549  0.0742 -0.6332
  285_EC     C5 1709   3.551   0.224   2.337  0.2220  0.2042  0.0141
  285_EC     C6 1710   3.500   0.276   2.470  0.1910  0.1658  0.0173
  286_EC     O1 1711   1.913   1.192   3.779  0.3773  0.1629 -0.0801
  286_EC     C2 1712   1.835   1.246   3.706  0.3477 -0.3654 -0.4440
  286_EC     O3 1713   1.733   1.177   3.647  0.0957 -0.5186  0.1607
  286_EC     O4 1714   1.865   1.337   3.609  0.0328  0.3576  0.1241
  286_EC     C5 1715   1.645   1.276   3.594  0.2598 -0.4075  0.0921
  286_EC     C6 1716   1.740   1.391   3.566  0.0116 -0.4112 -0.8089
  287_EC     O1 1717   2.014   2.521   0.139  0.3062 -0.6545  0.2015
  287_EC     C2 1718   2.091   2.456   0.072  0.2404 -0.6302  0.1019
  287_EC     O3 1719   2.097   2.465   3.915  0.8176 -0.0897  0.1579
  287_EC     O4 1720   2.223   2.461   0.106  0.2024 -0.3302  0.2167
  287_EC     C5 1721   2.201   2.376   3.875  0.6333 -0.2628  0.0621
  287_EC     C6 1722   2.282   2.359   0.025  0.5766 -0.0418  0.1268
  288_EC     O1 1723   1.494   2.829   2.325 -0.1556 -0.1504 -0.4485
  288_EC     C2 1724   1.533   2.729   2.380 -0.0575  0.3190  0.3520
  288_EC     O3 1725   1.615   2.638   2.320 -0.5932  0.0677 -0.0029
  288_EC     O4 1726   1.448   2.640   2.437  0.0421  0.0460  0.0768
  288_EC     C5 1727   1.660   2.546   2.420 -0.2402 -0.2992 -0.4967
  288_EC     C6 1728   1.532   2.544   2.502 -0.0248 -0.1703 -0.1548
  289_EC     O1 1729   2.090   2.207   2.331  0.4900  0.0352  0.7832
  289_EC     C2 1730   2.178   2.145   2.278  0.0662  0.1073 -0.0125
  289_EC     O3 1731   2.267   2.071   2.350  0.2447  0.3549  0.0225
  289_EC     O4 1732   2.152   2.064   2.171 -0.0722 -0.4964  0.4698
  289_EC     C5 1733   2.366   2.030   2.255  0.1633 -0.2234  0.1808
  289_EC     C6 1734   2.286   2.045   2.126 -0.0169  0.1771  0.3367
  290_EC     O1 1735   3.192   3.432   0.373 -0.1600  0.0928 -0.1167
  290_EC     C2 1736   3.212   3.396   0.260  0.0381 -0.0021 -0.0532
  290_EC     O3 1737   3.294   3.468   0.178 -0.2679 -0.0232 -0.3836
  290_EC     O4 1738   3.214   3.264   0.227 -0.4523  0.0604 -0.3497
  290_EC     C5 1739   3.257   3.412   0.052 -0.2214 -0.0031 -0.4061
  290_EC     C6 1740   3.214   3.270   0.084 -0.2768  0.0258 -0.3510
  291DMC     O1 1741   2.298   1.349   1.312 -0.2324  0.1396  0.0337
  291DMC     C2 1742   2.249   1.359   1.203  0.0043 -0.6720 -0.1554
  291DMC     O3 1743   2.291   1.281   1.101  0.2204 -0.2158 -0.4171
  291DMC     O4 1744   2.119   1.389   1.187  0.1554  0.2070  0.2306
  291DMC     C5 1745   2.394   1.192   1.136  0.4611  0.1357 -0.2235
  291DMC     C6 1746   2.062   1.411   1.314  0.2146  0.4019  0.2240
  292DMC     O1 1747   2.774   1.264   2.742 -0.3263 -0.0047  0.2294
  292DMC     C2 1748   2.752   1.151   2.707  0.1046 -0.0664  0.1439
  292DMC     O3 1749   2.702   1.122   2.586  0.0027  0.2685  0.1058
  292DMC     O4 1750   2.807   1.043   2.765  0.6172  0.0363 -0.1464
  292DMC     C5 1751   2.709   1.225   2.489 -0.1926 -0.2637 -0.4776
  292DMC     C6 1752   2.879   1.079   2.881 -0.1139  0.1470  0.2837
  293DMC     O1 1753   0.068   3.742   3.922  0.1264  0.6004  0.4341
  293DMC     C2 1754   3.944   3.683   3.912  0.0989  0.7946 -0.4927
  293DMC     O3 1755   3.822   3.737   3.931 -0.3018 -0.2297 -0.1007
  293DMC     O4 1756   3.929   3.565   3.849  0.0407  0.2522  0.5299
  293DMC     C5 1757   3.822   3.876   3.955  0.1472 -0.1691 -0.4220
  293DMC     C6 1758   0.077   3.511   3.820  0.0748  0.5552  0.1042
  294DMC     O1 1759   2.896   0.271   3.666  0.6380 -0.0486  0.4344
  294DMC     C2 1760   2.877   0.385   3.697 -0.9478 -0.1091 -0.1862
  294DMC     O3 1761   2.878   0.488   3.610 -0.0801  0.1243  0.0842
  294DMC     O4 1762   2.865   0.426   3.825  0.7256 -0.1165 -0.0022
  294DMC     C5 1763   2.910   0.436   3.482  0.0544 -0.5772  0.3989
  294DMC     C6 1764   2.884   0.320   3.917 -0.0964 -0.1219  0.1696
  295DMC     O1 1765   2.298   1.660   3.890 -0.0576  0.1018 -0.4629
  295DMC     C2 1766   2.353   1.556   3.868  0.2646  0.2303 -0.2842
  295DMC     O3 1767   2.296   1.436   3.846  0.1745  0.1931  0.1393
  295DMC     O4 1768   2.485   1.545   3.848  0.2930 -0.1159  0.0792
  295DMC     C5 1769   2.155   1.442   3.856  0.1335 -0.2320 -0.1629
  295DMC     C6 1770   2.548   1.668   3.876  0.1922  0.1914 -1.0125
  296DMC     O1 1771   1.851   0.322   1.409 -0.5295  0.0381 -0.0005
  296DMC     C2 1772   1.798   0.259   1.496  0.1779 -0.5911 -0.0139
  296DMC     O3 1773   1.867   0.220   1.605  0.4157  0.3248  0.1737
  296DMC     O4 1774   1.679   0.199   1.486  0.0233 -0.2754 -0.0901
  296DMC     C5 1775   2.000   0.266   1.601  0.4283  0.2738  0.0027
  296DMC     C6 1776   1.613   0.210   1.362 -0.1578 -0.7637 -0.0399
  297DMC     O1 1777   1.357   3.511   1.359  0.4534  0.4717 -0.1435
  297DMC     C2 1778   1.413   3.413   1.400 -0.7063 -0.0476  0.2537
  297DMC     O3 1779   1.367   3.289   1.375  0.0273 -0.1999 -0.3922
  297DMC     O4 1780   1.501   3.412   1.502  0.1355 -0.3707 -0.4590
  297DMC     C5 1781   1.261   3.287   1.282 -0.0373 -0.4932 -0.3140
  297DMC     C6 1782   1.517   3.541   1.556  0.0415 -0.5935  0.1078
  298DMC     O1 1783   1.453   2.100   3.643  0.4772  0.4133  0.4572
  298DMC     C2 1784   1.353   2.165   3.628 -0.1154 -0.6892 -0.4935
  298DMC     O3 1785   1.337   2.260   3.535  0.3175  0.4306  0.5592
  298DMC     O4 1786   1.231   2.123   3.667 -0.2209 -0.1198 -0.1991
  298DMC     C5 1787   1.456   2.320   3.490  0.4245 -0.0829  0.1500
  298DMC     C6 1788   1.244   2.003   3.740  0.1890 -0.1506 -0.3156
  299DMC     O1 1789   0.253   2.271   1.964 -0.0008 -0.1996  0.0651
  299DMC     C2 1790   0.207   2.380   1.983 -0.4461 -0.3761  0.0340
  299DMC     O3 1791   0.224   2.450   2.097 -0.1783 -0.5890  0.1275
  299DMC     O4 1792   0.117   2.440   1.905  0.1806  0.1015 -0.3363
  299DMC     C5 1793   0.278   2.373   2.202  0.0927  0.4043  0.7317
  299DMC     C6 1794   0.062   2.349   1.811 -0.1384  0.0340 -0.0857
  300DMC     O1 1795   2.266   1.661   2.746 -0.1832  0.0168  0.0188
  300DMC     C2 1796   2.371   1.658   2.803 -0.1942 -0.1973  0.0285
  300DMC     O3 1797   2.485   1.612   2.749 -0.2461  0.2804 -0.4869
  300DMC     O4 1798   2.394   1.697   2.930 -0.0029 -0.2725  0.0180
  300DMC     C5 1799   2.443   1.535   2.638  0.3213 -0.4255 -0.2223
  300DMC     C6 1800   2.288   1.770   2.988  0.0637 -0.3026  0.1781
  301DMC     O1 1801   2.280   1.012   1.925  0.2355  0.1711 -0.9583
  301DMC     C2 1802   2.285   0.936   1.833  0.5479  0.0226 -0.8204
  301DMC     O3 1803   2.397   0.883   1.781  0.7956 -0.2772  0.0144
  301DMC     O4 1804   2.187   0.922   1.742  0.1236  0.2874 -0.4093
  301DMC     C5 1805   2.512   0.942   1.838 -0.2508  0.4886  1.4004
  301DMC     C6 1806   2.088   1.019   1.765 -0.1828 -0.1274  0.0382
  302DMC     O1 1807   1.102   3.913   3.742 -0.1976 -0.0179  0.2661
  302DMC     C2 1808   1.079   3.891   3.857  0.0039 -0.1597  0.2803
  302DMC     O3 1809   1.140   3.945   3.964 -0.5983  0.7052  0.1943
  302DMC     O4 1810   0.968   3.824   3.896 -0.2420 -0.3152 -0.6567
  302DMC     C5 1811   1.250   0.035   3.910 -0.0786 -0.4293 -0.2272
  302DMC     C6 1812   0.887   3.777   3.791 -0.8302 -0.1070 -0.3006
  303DMC     O1 1813   0.620   3.211   1.447 -0.1868 -0.1948 -0.6146
  303DMC     C2 1814   0.558   3.108   1.443 -0.3160 -0.1295 -0.3069
  303DMC     O3 1815   0.515   3.041   1.335 -0.3582 -0.0671 -0.3284
  303DMC     O4 1816   0.524   3.034   1.550  0.4186  0.2655  0.2065
  303DMC     C5 1817   0.552   3.099   1.212 -0.0606 -0.1050 -0.2553
  303DMC     C6 1818   0.574   3.089   1.670  0.7090  0.0889  0.1671
  304DMC     O1 1819   1.821   0.754   1.651 -0.5644 -0.2841  0.1841
  304DMC     C2 1820   1.824   0.652   1.587  0.0784 -0.2928  0.2290
  304DMC     O3 1821   1.932   0.582   1.550  0.2632  0.2128 -0.1984
  304DMC     O4 1822   1.720   0.574   1.557 -0.2252  0.2897 -0.2563
  304DMC     C5 1823   2.056   0.635   1.590 -0.0782  0.5400  0.4333
  304DMC     C6 1824   1.597   0.624   1.605 -0.2022  0.1590 -0.0589
  305DMC     O1 1825   1.714   3.096   0.268  0.2287 -0.2250  0.2001
  305DMC     C2 1826   1.774   3.197   0.291 -0.2756  0.1607 -0.1499
  305DMC     O3 1827   1.872   3.222   0.380 -0.1350  0.4293 -0.3747
  305DMC     O4 1828   1.727   3.320   0.262  0.1631  0.4506  0.3439
  305DMC     C5 1829   1.903   3.111   0.461  0.1599  0.4661 -0.4355
  305DMC     C6 1830   1.594   3.296   0.219  0.3638 -0.4844  0.2144
  306DMC     O1 1831   3.457   1.614   1.906  0.0881  0.0289  0.3427
  306DMC     C2 1832   3.365   1.541   1.882  0.2317 -0.0080 -0.0937
  306DMC     O3 1833   3.253   1.597   1.833  0.0663  0.2918  0.6217
  306DMC     O4 1834   3.336   1.423   1.939  0.1858 -0.0338 -0.1700
  306DMC     C5 1835   3.270   1.725   1.777 -0.5598  0.4171  0.7084
  306DMC     C6 1836   3.452   1.347   1.969 -0.0097 -0.4580 -0.4714
  307DMC     O1 1837   3.293   1.451   1.518 -0.4380  0.1395  0.0203
  307DMC     C2 1838   3.196   1.408   1.461  0.0341 -0.0314 -0.6680
  307DMC     O3 1839   3.126   1.469   1.365  0.5670  0.0537 -1.0066
  307DMC     O4 1840   3.168   1.276   1.461  0.2246 -0.0859  0.3692
  307DMC     C5 1841   3.150   1.608   1.361  0.2482  0.1517  0.3156
  307DMC     C6 1842   3.247   1.199   1.549  0.4380 -0.1226  0.1472
  308DMC     O1 1843   1.109   3.278   3.700 -0.1919  0.5519  0.2508
  308DMC     C2 1844   1.025   3.257   3.783 -0.0532  0.3573  0.3431
  308DMC     O3 1845   1.041   3.197   3.902  0.6001 -0.4564 -0.1365
  308DMC     O4 1846   0.894   3.286   3.776 -0.1092 -0.0048 -0.1744
  308DMC     C5 1847   1.164   3.129   3.906  0.7701 -0.1486 -0.1479
  308DMC     C6 1848   0.871   3.357   3.656  0.2088 -0.0230 -0.2472
  309DMC     O1 1849   2.057   3.804   3.177 -0.0452  0.2469  0.0901
  309DMC     C2 1850   2.149   3.787   3.102 -0.3722 -0.4487 -0.1647
  309DMC     O3 1851   2.174   3.859   2.991 -0.6548 -0.2358 -0.0880
  309DMC     O4 1852   2.259   3.720   3.141 -0.0365 -0.0144 -0.3502
  309DMC     C5 1853   2.070   3.942   2.945 -0.4283 -0.0855 -0.3308
  309DMC     C6 1854   2.231   3.629   3.245 -0.0542 -0.1374 -0.4623
  310DMC     O1 1855   1.911   0.551   2.319  0.1237  0.1876  0.0404
  310DMC     C2 1856   1.936   0.436   2.340 -0.1876  0.1507  0.2196
  310DMC     O3 1857   1.883   0.362   2.439 -0.2134 -0.2993 -0.1237
  310DMC     O4 1858   2.041   0.365   2.295  0.0954  0.2918  0.6511
  310DMC     C5 1859   1.790   0.420   2.528 -0.0536 -0.0178 -0.1360
  310DMC     C6 1860   2.115   0.455   2.215  0.1310  0.1172  0.4847
  311DMC     O1 1861   2.454   0.534   1.813  0.7446 -0.6809  0.1243
  311DMC     C2 1862   2.387   0.505   1.718 -0.2102  0.6601  0.3594
  311DMC     O3 1863   2.399   0.563   1.597  0.2412  0.3727  0.2638
  311DMC     O4 1864   2.270   0.440   1.713  0.0861  0.1460 -0.0271
  311DMC     C5 1865   2.519   0.639   1.599  0.4936 -0.0034 -0.4017
  311DMC     C6 1866   2.226   0.413   1.844  0.1101  0.8641  0.1370
  312DMC     O1 1867   2.850   1.893   0.874  0.4612  0.0665 -0.2732
  312DMC     C2 1868   2.828   1.831   0.974 -0.1311  0.6337 -0.0469
  312DMC     O3 1869   2.810   1.697   0.970 -0.5557  0.6912 -0.1075
  312DMC     O4 1870   2.826   1.880   1.099 -0.2222  0.3438  0.0684
  312DMC     C5 1871   2.851   1.655   0.842 -0.8082  0.2763 -0.0522
  312DMC     C6 1872   2.868   2.015   1.101  0.0489  0.2730 -0.5604
  313DMC     O1 1873   1.953   0.641   2.804 -0.2086  0.1481  0.6474
  313DMC     C2 1874   1.924   0.757   2.795  0.4150  0.2467 -0.1751
  313DMC     O3 1875   1.868   0.834   2.890 -0.0976  0.1614 -0.4023
  313DMC     O4 1876   1.952   0.829   2.684  0.1081  0.2713 -0.2386
  313DMC     C5 1877   1.860   0.745   2.999 -0.0050 -0.2338 -0.7157
  313DMC     C6 1878   2.017   0.763   2.578  0.1437 -0.6657  0.3527
  314DMC     O1 1879   3.716   1.951   0.633  0.3766 -0.4729  0.0168
  314DMC     C2 1880   3.733   2.052   0.696  0.0068 -0.2759 -0.1933
  314DMC     O3 1881   3.824   2.060   0.794 -0.3450 -0.5376  0.1588
  314DMC     O4 1882   3.677   2.171   0.669 -0.3161 -0.4689 -0.3802
  314DMC     C5 1883   3.900   1.941   0.779  0.5231  0.0020  0.1942
  314DMC     C6 1884   3.625   2.175   0.538 -0.0451  0.1269 -0.4729
  315DMC     O1 1885   2.734   2.207   3.363  0.3104  0.2564 -0.0059
  315DMC     C2 1886   2.635   2.142   3.377  0.3618  0.0409 -0.6080
  315DMC     O3 1887   2.632   2.010   3.402  0.2421  0.1839  0.1666
  315DMC     O4 1888   2.517   2.180   3.325  0.2905 -0.2810 -0.6841
  315DMC     C5 1889   2.763   1.964   3.426  0.4789  0.3256 -0.8465
  315DMC     C6 1890   2.499   2.312   3.279 -0.1529  0.1711  0.7295
  316DMC     O1 1891   3.353   3.620   1.916 -0.0992  0.2949 -0.2122
  316DMC     C2 1892   3.347   3.565   1.810  0.1655 -0.1174 -0.0146
  316DMC     O3 1893   3.308   3.618   1.693 -0.5580 -0.4550  0.0649
  316DMC     O4 1894   3.377   3.434   1.798 -0.6178 -0.3055  0.0645
  316DMC     C5 1895   3.251   3.747   1.701  0.7561  0.1261  0.4605
  316DMC     C6 1896   3.437   3.389   1.918 -0.2737 -0.4853 -0.1751
  317DMC     O1 1897   1.381   3.745   1.771  0.1503  0.4053 -0.7800
  317DMC     C2 1898   1.418   3.834   1.843 -0.1272 -0.2363  0.1844
  317DMC     O3 1899   1.409   3.839   1.977 -0.2944  0.3968  0.1511
  317DMC     O4 1900   1.498   3.933   1.800 -0.4610  0.1756  0.4970
  317DMC     C5 1901   1.335   3.745   2.051  0.3350 -0.2288 -0.0090
  317DMC     C6 1902   1.518   3.918   1.661  0.1036  0.4157  0.5510
  318DMC     O1 1903   0.882   2.760   1.319  0.0018 -0.1071 -0.3671
  318DMC     C2 1904   0.820   2.861   1.334  0.2512 -0.0042 -0.0274
  318DMC     O3 1905   0.822   2.959   1.243  0.3030 -0.0974 -0.1259
  318DMC     O4 1906   0.749   2.892   1.444  0.2443  0.0841 -0.0572
  318DMC     C5 1907   0.901   2.945   1.126 -0.2994  0.2098 -0.5742
  318DMC     C6 1908   0.769   2.803   1.552  0.5824 -0.3754 -0.4955
  319DMC     O1 1909   0.893   0.974   0.283 -0.7365 -0.2630 -0.0631
  319DMC     C2 1910   0.909   0.876   0.351 -0.4772 -0.1561  0.0313
  319DMC     O3 1911   0.954   0.762   0.298 -0.1349  0.0441 -0.1107
  319DMC     O4 1912   0.897   0.869   0.485 -0.0349  0.0787  0.0878
  319DMC     C5 1913   0.960   0.769   0.157  0.6416 -0.4431 -0.1082
  319DMC     C6 1914   0.917   0.997   0.540 -0.4190  0.2812 -0.2358
  320DMC     O1 1915   2.553   2.045   3.014  0.1068 -0.3695  0.0991
  320DMC     C2 1916   2.664   2.036   2.971  0.2059  0.2894  0.2069
  320DMC     O3 1917   2.729   2.114   2.884  0.3469 -0.2263 -0.1554
  320DMC     O4 1918   2.737   1.925   2.991 -0.1718  0.1429  0.7995
  320DMC     C5 1919   2.674   2.244   2.880 -0.0375 -0.3869 -0.0839
  320DMC     C6 1920   2.683   1.826   3.075 -0.0979 -0.5138  0.0921
  321DMC     O1 1921   2.612   0.660   3.198  0.3038  0.0112  0.1514
  321DMC     C2 1922   2.606   0.772   3.239 -0.8797  0.0013  0.0440
  321DMC     O3 1923   2.617   0.815   3.366 -0.3329  0.5738 -0.1904
  321DMC     O4 1924   2.604   0.879   3.157  0.2059 -0.1496 -0.2004
  321DMC     C5 1925   2.662   0.703   3.439 -0.0573  0.5519 -0.3897
  321DMC     C6 1926   2.599   0.863   3.017 -0.1905  0.2778 -0.2353
  322DMC     O1 1927   0.546   3.602   3.371 -0.1518  0.2296 -0.2774
  322DMC     C2 1928   0.573   3.595   3.488 -0.0009 -0.2629 -0.3393
  322DMC     O3 1929   0.482   3.574   3.585  0.3191  0.2364  0.0750
  322DMC     O4 1930   0.696   3.579   3.539  0.0004 -0.2375 -0.3344
  322DMC     C5 1931   0.348   3.563   3.542  0.1532  0.2324  0.5912
  322DMC     C6 1932   0.791   3.597   3.436  0.2298  0.3118 -0.0270
  323DMC     O1 1933   2.125   1.085   1.364  0.0530 -0.4459  0.2195
  323DMC     C2 1934   2.071   0.978   1.354 -0.2303 -0.3128  0.3264
  323DMC     O3 1935   1.947   0.947   1.398 -0.5748 -0.1496 -0.4987
  323DMC     O4 1936   2.148   0.869   1.357  0.3321  0.0873  0.6325
  323DMC     C5 1937   1.887   1.066   1.444  0.3299  0.3171 -0.4815
  323DMC     C6 1938   2.285   0.896   1.338  0.3688 -0.5051  0.0124
  324DMC     O1 1939   2.152   2.750   2.412 -0.1085 -0.2873 -0.1873
  324DMC     C2 1940   2.045   2.778   2.365 -0.0871  0.2431  0.0700
  324DMC     O3 1941   2.009   2.900   2.323 -0.1680  0.1005 -0.2818
  324DMC     O4 1942   1.967   2.684   2.308 -0.0611  0.2746 -0.0172
  324DMC     C5 1943   1.877   2.904   2.275 -0.2775  0.1262  0.0155
  324DMC     C6 1944   2.028   2.557   2.314  0.3735  0.4859  0.0930
  325DMC     O1 1945   0.278   0.925   3.508  0.2807 -0.6369 -0.4932
  325DMC     C2 1946   0.379   0.953   3.567 -0.0262  0.2813 -0.3890
  325DMC     O3 1947   0.389   1.025   3.680 -0.1121 -0.0556 -0.1640
  325DMC     O4 1948   0.498   0.932   3.508  0.2751 -0.4454  0.4604
  325DMC     C5 1949   0.267   1.078   3.726 -0.2639 -0.3945 -0.1750
  325DMC     C6 1950   0.485   0.906   3.370  0.3960  0.4773  0.2694
  326DMC     O1 1951   0.571   3.104   3.140 -0.0527  0.1541 -0.0048
  326DMC     C2 1952   0.652   3.084   3.226 -0.2815 -0.1740  0.1361
  326DMC     O3 1953   0.733   3.175   3.284 -0.5965  0.3937 -0.2974
  326DMC     O4 1954   0.694   2.963   3.265 -0.4644 -0.1563  0.3920
  326DMC     C5 1955   0.705   3.304   3.234  0.0175  0.4775 -0.4301
  326DMC     C6 1956   0.628   2.860   3.194  0.3248 -0.5588  0.2403
  327DMC     O1 1957   2.330   1.993   0.843  0.1578 -0.2511 -0.4333
  327DMC     C2 1958   2.401   2.043   0.761  0.0307  0.3526 -0.1812
  327DMC     O3 1959   2.413   2.177   0.761 -0.4908  0.4062  0.4937
  327DMC     O4 1960   2.513   1.990   0.708 -0.3518 -0.0514 -0.5920
  327DMC     C5 1961   2.317   2.243   0.839 -0.3481  0.6970  0.4222
  327DMC     C6 1962   2.534   1.852   0.731  0.6910  0.1519 -0.2786
  328DMC     O1 1963   3.947   0.572   1.197  0.5914  0.2654  0.0767
  328DMC     C2 1964   3.922   0.621   1.304  0.5862  0.4350 -0.0024
  328DMC     O3 1965   3.799   0.655   1.346  0.2962 -0.4965 -0.0776
  328DMC     O4 1966   0.028   0.623   1.407 -0.1021 -0.0294  0.5835
  328DMC     C5 1967   3.701   0.652   1.245 -0.4182  0.3052  0.5811
  328DMC     C6 1968   0.132   0.540   1.363 -0.2312  0.2447 -0.2460
  329DMC     O1 1969   0.761   1.070   3.193 -0.3923  0.2167  0.0353
  329DMC     C2 1970   0.863   1.072   3.255 -0.2465  0.4579 -0.2103
  329DMC     O3 1971   0.952   1.172   3.268 -0.0663  0.2794 -0.0694
  329DMC     O4 1972   0.908   0.966   3.324  0.2680  0.3790 -0.6531
  329DMC     C5 1973   0.891   1.290   3.222  0.4737  0.7144  0.3134
  329DMC     C6 1974   0.856   0.844   3.277  0.5863 -0.1422  0.3166
  330DMC     O1 1975   2.573   1.847   1.629 -0.0496 -0.0539 -0.0575
  330DMC     C2 1976   2.652   1.770   1.583  0.0646  0.2278 -0.3402
  330DMC     O3 1977   2.617   1.661   1.511 -0.2028 -0.1761  0.3930
  330DMC     O4 1978   2.785   1.791   1.584  0.1645 -0.3806  0.8992
  330DMC     C5 1979   2.479   1.666   1.483 -0.1008 -0.1400 -0.0975
  330DMC     C6 1980   2.816   1.925   1.615  0.7035 -0.2730 -0.0709
  331DMC     O1 1981   1.075   3.088   3.136  0.3785 -0.2101 -0.0189
  331DMC     C2 1982   1.093   3.205   3.111 -0.3386 -0.0341  0.2600
  331DMC     O3 1983   1.139   3.290   3.204  0.5341 -0.0496 -0.1574
  331DMC     O4 1984   1.027   3.269   3.013  0.4760 -0.2457 -0.4396
  331DMC     C5 1985   1.178   3.213   3.315 -0.0207  0.0006  0.0743
  331DMC     C6 1986   0.932   3.201   2.934 -0.1359  0.1394 -0.0509
  332DMC     O1 1987   0.914   0.293   1.868  0.4107  0.4661 -0.3824
  332DMC     C2 1988   0.947   0.304   1.983  0.0949  0.3213 -0.2758
  332DMC     O3 1989   1.069   0.272   2.030 -0.1601 -0.6278 -0.2431
  332DMC     O4 1990   0.861   0.288   2.085  0.2454  0.0574 -0.1889
  332DMC     C5 1991   1.165   0.275   1.927 -0.2726  0.2120 -0.3321
  332DMC     C6 1992   0.731   0.289   2.030  0.1955  0.7219 -0.0667
  333DMC     O1 1993   2.308   3.378   1.375  0.2150  0.3972  0.6793
  333DMC     C2 1994   2.427   3.392   1.377  0.2058  0.6461 -0.0937
  333DMC     O3 1995   2.499   3.382   1.490  0.1862 -0.3544 -0.1633
  333DMC     O4 1996   2.505   3.407   1.268  0.4324 -0.4067 -0.0832
  333DMC     C5 1997   2.425   3.343   1.604 -0.7943  0.3233 -0.5540
  333DMC     C6 1998   2.438   3.404   1.144  0.5152  0.2692 -0.1445
  334DMC     O1 1999   2.937   0.276   0.259 -0.3940 -0.3824 -0.3940
  334DMC     C2 2000   2.848   0.263   0.338 -0.4100  0.0953 -0.3308
  334DMC     O3 2001   2.850   0.158   0.421  0.4166  0.3132 -0.0630
  334DMC     O4 2002   2.760   0.356   0.379 -0.1849  0.2097 -0.1034
  334DMC     C5 2003   2.926   0.058   0.356 -0.1098  0.0803 -0.3237
  334DMC     C6 2004   2.787   0.481   0.319  1.1516  0.1072  0.2671
  335DMC     O1 2005   3.970   3.186   2.071  0.0765  0.4473 -0.3833
  335DMC     C2 2006   3.979   3.118   1.973 -0.2148 -0.4267  0.1775
  335DMC     O3 2007   3.876   3.063   1.906 -0.0083 -0.4369 -0.1325
  335DMC     O4 2008   0.114   3.091   1.909 -0.2912 -0.3419  0.0013
  335DMC     C5 2009   3.754   3.110   1.958  0.0517  0.2014 -0.5555
  335DMC     C6 2010   0.225   3.146   1.977 -0.8545 -0.0331  0.6838
  336DMC     O1 2011   2.737   2.105   1.974  0.3156 -0.2278  0.0530
  336DMC     C2 2012   2.741   2.198   2.049  0.3931 -0.1328 -0.0701
  336DMC     O3 2013   2.727   2.192   2.182  0.3435 -0.4551 -0.0904
  336DMC     O4 2014   2.777   2.324   2.018  0.1199 -0.0893 -0.2101
  336DMC     C5 2015   2.732   2.311   2.257  0.0306 -0.5056  0.0125
  336DMC     C6 2016   2.799   2.343   1.880  0.1180 -0.3315 -0.2446
  337DMC     O1 2017   3.206   1.875   2.545 -0.0321 -0.0230 -0.3242
  337DMC     C2 2018   3.285   1.939   2.608 -0.1425 -0.0824 -0.1239
  337DMC     O3 2019   3.280   2.073   2.616  0.3779 -0.0693  0.0322
  337DMC     O4 2020   3.405   1.894   2.650 -0.2578 -0.5608 -0.2992
  337DMC     C5 2021   3.176   2.136   2.545 -0.2686 -0.1903  0.8540
  337DMC     C6 2022   3.435   1.762   2.613 -0.2567 -0.5034 -0.5070
  338DMC     O1 2023   1.900   3.138   3.278  0.3133  0.2056  0.4078
  338DMC     C2 2024   1.976   3.210   3.220 -0.1568  0.4865  0.1369
  338DMC     O3 2025   1.969   3.213   3.086  0.6791  0.0143  0.0756
  338DMC     O4 2026   2.070   3.290   3.274 -0.1109  0.4082  0.1729
  338DMC     C5 2027   1.890   3.100   3.054  0.4722  0.1146  0.2275
  338DMC     C6 2028   2.072   3.283   3.415 -0.6217  0.8558  0.2042
  339DMC     O1 2029   2.416   1.064   2.197  0.1042  0.6514  0.0871
  339DMC     C2 2030   2.512   0.991   2.202 -0.1846  0.2793  0.2429
  339DMC     O3 2031   2.626   1.041   2.151 -0.2766  0.8834  0.6174
  339DMC     O4 2032   2.523   0.863   2.239 -0.4461  0.3411  0.5356
  339DMC     C5 2033   2.634   1.175   2.110 -0.5192  0.9302  0.7210
  339DMC     C6 2034   2.399   0.803   2.273 -0.3067  0.0554  0.5452
  340DMC     O1 2035   1.389   2.186   1.690 -0.1949 -0.0194  0.3492
  340DMC     C2 2036   1.447   2.088   1.653 -0.4994 -0.2357  0.4404
  340DMC     O3 2037   1.433   2.037   1.530 -0.0215 -0.0936  0.3271
  340DMC     O4 2038   1.510   1.994   1.725  0.3152  0.1788  0.2792
  340DMC     C5 2039   1.351   2.114   1.445  0.4976  0.3068  0.1857
  340DMC     C6 2040   1.526   2.024   1.862 -1.0162 -0.4121  0.5810
  341DMC     O1 2041   0.101   3.260   1.017  0.1528  0.1458  0.6892
  341DMC     C2 2042   0.156   3.155   1.000  0.3599  0.2662  0.5986
  341DMC     O3 2043   0.260   3.137   0.918  0.0883  0.3946  0.2222
  341DMC     O4 2044   0.087   3.039   0.995  0.3884  0.2618  0.3239
  341DMC     C5 2045   0.315   3.257   0.870  0.5526 -0.0655 -0.4181
  341DMC     C6 2046   3.929   3.038   1.022  0.2484 -0.3321 -0.3729
  342DMC     O1 2047   1.926   1.524   1.752 -0.2663 -0.2199  0.1197
  342DMC     C2 2048   1.976   1.429   1.699 -0.2007  0.3433 -0.8652
  342DMC     O3 2049   2.107   1.426   1.669 -0.0927  0.0006 -0.3780
  342DMC     O4 2050   1.909   1.312   1.691  0.2342 -0.0188  0.4495
  342DMC     C5 2051   2.179   1.543   1.703 -0.3784  0.1103 -0.1386
  342DMC     C6 2052   1.778   1.317   1.743  0.1871  0.1685  0.3154
  343DMC     O1 2053   3.664   3.898   0.689 -0.0701 -0.1066 -0.2280
  343DMC     C2 2054   3.767   3.845   0.658  0.2394  0.2127  0.2431
  343DMC     O3 2055   3.882   3.912   0.640 -0.0549  0.5496 -0.4075
  343DMC     O4 2056   3.792   3.716   0.690 -0.3027  0.0494  0.0146
  343DMC     C5 2057   3.864   0.072   0.628 -0.2698  0.5400 -0.1829
  343DMC     C6 2058   3.685   3.659   0.761 -0.9743  0.7009 -0.4553
  344DMC     O1 2059   0.038   2.033   0.489  0.3590 -0.1092 -0.4347
  344DMC     C2 2060   3.975   1.987   0.387  0.1259 -0.3224 -0.2430
  344DMC     O3 2061   3.900   2.055   0.299  0.5122  0.1793 -0.1864
  344DMC     O4 2062   3.974   1.855   0.361  0.4069 -0.3943  0.1113
  344DMC     C5 2063   3.895   2.193   0.331  0.1444  0.0201  0.4454
  344DMC     C6 2064   0.071   1.784   0.456 -0.0982 -0.4051  0.5177
  345DMC     O1 2065   1.018   1.657   0.892 -0.0924  0.2622  0.6267
  345DMC     C2 2066   1.086   1.608   0.977  0.6031 -0.0218 -0.0761
  345DMC     O3 2067   1.217   1.585   0.963  0.6749  0.3583 -0.0535
  345DMC     O4 2068   1.058   1.613   1.109 -0.0968 -0.2355 -0.2150
  345DMC     C5 2069   1.259   1.580   0.828 -0.0827 -0.2040 -0.2797
  345DMC     C6 2070   0.936   1.684   1.121  0.1128  0.1444 -0.3316
  346DMC     O1 2071   1.362   3.849   0.985  0.1035 -0.0534  0.1199
  346DMC     C2 2072   1.451   3.788   0.933  0.0153 -0.3015  0.2610
  346DMC     O3 2073   1.456   3.654   0.937 -0.2438 -0.3287 -0.2320
  346DMC     O4 2074   1.558   3.827   0.862 -0.2645  0.0731  0.0422
  346DMC     C5 2075   1.348   3.599   1.009 -0.1237  0.0125  0.2151
  346DMC     C6 2076   1.563   3.960   0.815 -0.4410 -0.0791 -0.4149
  347DMC     O1 2077   2.233   1.768   3.539  0.0954 -0.1555  0.1734
  347DMC     C2 2078   2.154   1.808   3.620  0.0483 -0.0638  0.0816
  347DMC     O3 2079   2.040   1.748   3.657 -0.3185  0.2786 -0.4696
  347DMC     O4 2080   2.173   1.916   3.699 -0.4881  0.0417  0.0736
  347DMC     C5 2081   1.995   1.647   3.569 -0.3313 -0.2858  0.1739
  347DMC     C6 2082   2.289   1.994   3.677 -0.6119  0.2245  0.0711
  348DMC     O1 2083   1.386   3.856   2.757  0.4582 -0.2218  0.4970
  348DMC     C2 2084   1.408   3.962   2.809 -0.4832  0.0025  0.4526
  348DMC     O3 2085   1.379   0.097   2.745 -0.3129  0.1465  0.6322
  348DMC     O4 2086   1.481   0.004   2.920  0.0863 -0.2988  0.1426
  348DMC     C5 2087   1.327   0.077   2.616 -0.1181 -0.1338  0.5980
  348DMC     C6 2088   1.534   3.866   2.977 -0.2426 -0.3443  0.3551
  349DMC     O1 2089   1.298   2.475   2.782 -0.1984  0.7050 -0.0300
  349DMC     C2 2090   1.204   2.405   2.808  0.1951  0.2629  0.2276
  349DMC     O3 2091   1.171   2.364   2.931 -0.0593  0.1348  0.1179
  349DMC     O4 2092   1.118   2.364   2.713  0.5355  0.1994 -0.0550
  349DMC     C5 2093   1.276   2.409   3.014  0.3900 -0.7606  0.0526
  349DMC     C6 2094   1.159   2.397   2.582  0.4509 -0.7085 -0.3163
  350DMC     O1 2095   1.364   2.801   0.329  0.2928 -0.1778 -0.0360
  350DMC     C2 2096   1.287   2.785   0.238 -0.0902  0.7490  0.1161
  350DMC     O3 2097   1.296   2.850   0.121 -0.0475  0.5174 -0.0100
  350DMC     O4 2098   1.172   2.715   0.249  0.2857  0.1418  0.2361
  350DMC     C5 2099   1.408   2.935   0.121 -0.0239  0.4865  0.0956
  350DMC     C6 2100   1.154   2.666   0.380 -0.2387  0.2488  0.2037
  351DMC     O1 2101   1.067   0.528   3.454  0.2791 -0.3516  0.2641
  351DMC     C2 2102   1.149   0.563   3.373  0.0413 -0.3106  0.0398
  351DMC     O3 2103   1.232   0.668   3.377  0.0831 -0.3322 -0.2367
  351DMC     O4 2104   1.132   0.544   3.241  0.1753  0.3699 -0.0792
  351DMC     C5 2105   1.242   0.726   3.506 -0.2036  0.3520 -0.5147
  351DMC     C6 2106   1.000   0.499   3.222  0.0793  0.6191 -0.0003
  352DMC     O1 2107   0.907   2.617   2.412  0.2460 -0.3019  0.2128
  352DMC     C2 2108   0.824   2.586   2.332 -0.0986  0.3516  0.3136
  352DMC     O3 2109   0.812   2.640   2.209  0.3472  0.1253  0.1719
  352DMC     O4 2110   0.748   2.477   2.346  0.5661 -0.2176 -0.4107
  352DMC     C5 2111   0.895   2.751   2.182 -0.2547  0.4814 -0.2221
  352DMC     C6 2112   0.781   2.392   2.454 -0.2827 -0.1280 -0.0667
  353DMC     O1 2113   0.598   1.902   1.538 -0.2203 -0.0249 -0.4194
  353DMC     C2 2114   0.574   1.789   1.503  0.4229 -0.3190  0.0773
  353DMC     O3 2115   0.585   1.738   1.380 -0.4462 -0.3702  0.0202
  353DMC     O4 2116   0.572   1.687   1.590  0.1898 -0.2377  0.1673
  353DMC     C5 2117   0.611   1.827   1.274 -0.6785 -0.3639 -0.0329
  353DMC     C6 2118   0.570   1.720   1.728 -0.8488  0.4672 -0.0050
  354DMC     O1 2119   1.523   1.857   0.999 -0.2555  0.3234  0.1959
  354DMC     C2 2120   1.593   1.940   0.947  1.0151 -0.7512  0.1305
  354DMC     O3 2121   1.666   2.030   1.015 -0.1084  0.1919  0.1229
  354DMC     O4 2122   1.662   1.914   0.834 -0.2966 -0.1150 -0.8551
  354DMC     C5 2123   1.639   2.030   1.153 -0.4566  0.5214  0.0558
  354DMC     C6 2124   1.610   1.802   0.765 -0.4809 -0.3990 -0.2716
  355DMC     O1 2125   0.482   2.048   2.686  0.0345 -0.0202  0.3556
  355DMC     C2 2126   0.565   2.085   2.609 -0.2284  0.5830  0.3584
  355DMC     O3 2127   0.689   2.035   2.600 -0.5281 -0.1587  0.3415
  355DMC     O4 2128   0.545   2.190   2.527  0.0197  0.5502  0.2539
  355DMC     C5 2129   0.725   1.928   2.685  0.5174  0.1501  0.2979
  355DMC     C6 2130   0.427   2.261   2.557 -0.3345  0.0261  0.1009
  356DMC     O1 2131   2.099   1.469   0.312 -0.6983  0.1878 -0.1469
  356DMC     C2 2132   2.112   1.354   0.281 -0.3043  0.1169  0.2635
  356DMC     O3 2133   2.220   1.278   0.303 -0.4469 -0.2044 -0.1272
  356DMC     O4 2134   2.024   1.275   0.217  0.1010 -0.1558  0.0319
  356DMC     C5 2135   2.323   1.347   0.371 -0.2248 -0.2785 -0.3865
  356DMC     C6 2136   2.035   1.136   0.233 -0.2241 -0.0916  0.8818
  357DMC     O1 2137   0.057   1.514   1.759  0.1469  0.0098 -0.0282
  357DMC     C2 2138   0.019   1.537   1.871  0.6027  0.3152  0.0674
  357DMC     O3 2139   3.912   1.634   1.906  0.2135 -0.1662  0.4423
  357DMC     O4 2140   3.966   1.439   1.957  0.5062 -0.4601 -0.8373
  357DMC     C5 2141   3.853   1.703   1.799  0.7384 -0.3286  0.0402
  357DMC     C6 2142   0.041   1.313   1.927  0.8094 -0.4845 -0.1768
  358DMC     O1 2143   2.746   3.750   1.451  0.2770 -0.3697  0.6286
  358DMC     C2 2144   2.696   3.844   1.507 -0.1626 -0.1866 -0.0591
  358DMC     O3 2145   2.567   3.861   1.539 -0.1260 -0.3139  0.1583
  358DMC     O4 2146   2.764   3.948   1.559  0.3255 -0.2157 -0.6280
  358DMC     C5 2147   2.484   3.770   1.471 -0.1647  0.0473 -0.2801
  358DMC     C6 2148   2.901   3.921   1.576  0.3110  0.3741  0.5182
  359DMC     O1 2149   2.189   1.037   0.737  0.4334 -0.5372 -0.3472
  359DMC     C2 2150   2.240   1.140   0.700  0.0871 -0.1262  0.2972
  359DMC     O3 2151   2.373   1.152   0.707  0.1284 -0.2482 -0.2076
  359DMC     O4 2152   2.181   1.229   0.619 -0.4803 -0.2491  0.5688
  359DMC     C5 2153   2.438   1.031   0.738  0.1064 -0.2540 -0.1841
  359DMC     C6 2154   2.041   1.210   0.612 -0.5516  0.0895  0.9854
  360DMC     O1 2155   1.804   0.942   3.282 -0.4602  0.2830  0.1478
  360DMC     C2 2156   1.767   1.056   3.274 -0.0562  0.4516  0.6122
  360DMC     O3 2157   1.841   1.154   3.220  0.1191  0.1626  0.3226
  360DMC     O4 2158   1.645   1.090   3.319 -0.2472  0.1186  0.3532
  360DMC     C5 2159   1.945   1.090   3.149 -0.4390  0.3685 -0.6990
  360DMC     C6 2160   1.582   0.995   3.401  0.0775 -0.4571 -0.0614
  361DMC     O1 2161   2.895   1.095   0.876  0.3002  0.0402  0.2840
  361DMC     C2 2162   2.878   1.209   0.910 -0.0181 -0.0163  0.3134
  361DMC     O3 2163   2.818   1.310   0.844  0.5744  0.1241 -0.0133
  361DMC     O4 2164   2.921   1.261   1.026  0.1237  0.1120  0.2030
  361DMC     C5 2165   2.755   1.259   0.728 -0.0204  0.1617  0.2890
  361DMC     C6 2166   3.013   1.173   1.086 -0.2260 -0.2097  0.2713
  362DMC     O1 2167   0.076   1.388   3.714 -0.2181  0.0584  0.0067
  362DMC     C2 2168   3.952   1.430   3.671 -0.2331  0.2727  0.2522
  362DMC     O3 2169   3.832   1.378   3.703 -0.0874 -0.0920  0.2078
  362DMC     O4 2170   3.932   1.559   3.639  0.0799  0.1393 -0.4796
  362DMC     C5 2171   3.840   1.261   3.783  0.1001  0.4525  1.0036
  362DMC     C6 2172   0.063   1.636   3.679 -0.1073  0.3510 -0.3685
  363DMC     O1 2173   3.801   2.519   1.647  0.6794  0.1065  0.2117
  363DMC     C2 2174   3.767   2.633   1.639  0.3507  0.0076  0.1708
  363DMC     O3 2175   3.785   2.723   1.737 -0.0060  0.3061 -0.0326
  363DMC     O4 2176   3.771   2.701   1.523 -0.6756 -0.2142 -0.0022
  363DMC     C5 2177   3.840   2.671   1.857 -0.4197 -0.6049 -0.2326
  363DMC     C6 2178   3.754   2.837   1.554  0.8689  0.1479 -0.6699
  364DMC     O1 2179   2.014   1.709   2.195 -0.2349 -0.3526 -0.8159
  364DMC     C2 2180   2.130   1.706   2.165 -0.0270 -0.2734 -0.0550
  364DMC     O3 2181   2.180   1.746   2.047  0.2627 -0.3922  0.0250
  364DMC     O4 2182   2.231   1.691   2.252  0.0273 -0.2211 -0.1101
  364DMC     C5 2183   2.078   1.784   1.957  0.2347 -0.0901  0.1822
  364DMC     C6 2184   2.173   1.664   2.377  0.3520  0.4810  0.1953
  365DMC     O1 2185   3.117   1.591   3.197 -0.1813  0.3828 -0.0906
  365DMC     C2 2186   3.109   1.666   3.290 -0.2161 -0.0255  0.2388
  365DMC     O3 2187   3.182   1.650   3.402 -0.1514 -0.0964  0.1867
  365DMC     O4 2188   3.069   1.795   3.291  0.7236  0.2785 -0.2522
  365DMC     C5 2189   3.254   1.529   3.404 -0.0334 -0.0195  0.6795
  365DMC     C6 2190   3.047   1.841   3.159  0.6032  0.8345 -0.0363
  366DMC     O1 2191   2.471   0.161   1.729  0.2765 -0.2354 -0.7012
  366DMC     C2 2192   2.440   0.055   1.775  0.3039 -0.0046 -0.1475
  366DMC     O3 2193   2.513   3.969   1.867  0.3560  0.0688 -0.1369
  366DMC     O4 2194   2.321   3.976   1.751  0.1954  0.1068  0.1135
  366DMC     C5 2195   2.640   0.051   1.869  0.5818 -0.3913 -0.2938
  366DMC     C6 2196   2.273   0.074   1.643 -0.3225 -0.0937  0.1975
  367DMC     O1 2197   1.623   0.852   2.719  0.1848 -0.2063 -0.3405
  367DMC     C2 2198   1.621   0.972   2.710  0.9962 -0.1283  0.4011
  367DMC     O3 2199   1.658   1.046   2.604 -0.3012 -0.3381 -0.2170
  367DMC     O4 2200   1.589   1.054   2.812  0.3761 -0.2197  0.2845
  367DMC     C5 2201   1.710   0.962   2.503 -0.4455 -0.3976 -0.2415
  367DMC     C6 2202   1.531   0.977   2.915  0.9338 -0.6642  0.2719
  368DMC     O1 2203   1.163   0.275   0.468 -0.4155  0.0855 -0.3840
  368DMC     C2 2204   1.251   0.308   0.394  0.2374  0.0136  0.3390
  368DMC     O3 2205   1.252   0.420   0.320  0.3912  0.0175  0.3456
  368DMC     O4 2206   1.375   0.256   0.388  0.2478  0.0706  0.0119
  368DMC     C5 2207   1.139   0.498   0.352 -0.0135 -0.3315 -0.2078
  368DMC     C6 2208   1.384   0.147   0.478 -0.1260 -0.2332 -0.3146
  369DMC     O1 2209   2.127   2.205   3.263 -0.0455  0.0110 -0.1580
  369DMC     C2 2210   2.126   2.143   3.366  0.1360 -0.2002 -0.2823
  369DMC     O3 2211   2.091   2.014   3.376  0.5307 -0.3069 -0.2810
  369DMC     O4 2212   2.117   2.205   3.485  0.3576  0.3644 -0.5549
  369DMC     C5 2213   2.062   1.955   3.251  0.5100  0.1654 -0.4980
  369DMC     C6 2214   2.139   2.344   3.478 -0.6332  0.5263 -0.5960
  370DMC     O1 2215   2.127   2.726   3.629 -0.4502  0.2122  0.0698
  370DMC     C2 2216   2.060   2.818   3.666 -0.1349  0.5579 -0.2147
  370DMC     O3 2217   1.935   2.797   3.712  0.0675  0.0689  0.1164
  370DMC     O4 2218   2.094   2.947   3.654 -0.0097  0.5379 -0.0741
  370DMC     C5 2219   1.913   2.659   3.728 -0.1481  0.1234  0.3029
  370DMC     C6 2220   2.221   2.957   3.592  0.0619  0.4496  0.0595
  371DMC     O1 2221   0.802   3.853   2.543 -0.3239 -0.2264 -0.0801
  371DMC     C2 2222   0.803   3.738   2.575 -0.1805 -0.1159  0.3163
  371DMC     O3 2223   0.915   3.666   2.593  0.0656  0.0788 -0.4252
  371DMC     O4 2224   0.718   3.696   2.670  0.1081 -0.2301  0.5236
  371DMC     C5 2225   1.038   3.729   2.562  0.2672  0.0485  0.3033
  371DMC     C6 2226   0.643   3.799   2.731  0.2023 -0.1944  0.5796
  372DMC     O1 2227   3.677   1.606   1.138 -0.0789  0.1200 -0.1231
  372DMC     C2 2228   3.650   1.522   1.220 -0.1151 -0.0195 -0.2778
  372DMC     O3 2229   3.574   1.545   1.328  0.2953  0.4982 -0.0942
  372DMC     O4 2230   3.687   1.393   1.212  0.1355  0.0397 -0.0891
  372DMC     C5 2231   3.548   1.679   1.364 -0.1330  0.2039  0.7140
  372DMC     C6 2232   3.769   1.375   1.099 -0.3279  0.1569 -0.4490
  373DMC     O1 2233   0.854   0.656   2.596  0.2136  0.4807 -0.7104
  373DMC     C2 2234   0.825   0.540   2.597 -0.5819  0.6730 -0.0339
  373DMC     O3 2235   0.777   0.469   2.701 -0.1569  0.1314 -0.2028
  373DMC     O4 2236   0.827   0.458   2.490 -0.7998  0.1772  0.3366
  373DMC     C5 2237   0.759   0.544   2.819 -0.8651  0.0645 -0.2617
  373DMC     C6 2238   0.862   0.508   2.363 -0.6793 -0.0941  0.2631
  374DMC     O1 2239   3.495   3.033   1.792  0.3842 -0.4597 -0.1456
  374DMC     C2 2240   3.434   3.019   1.690  0.4657 -0.2462 -0.2243
  374DMC     O3 2241   3.310   2.968   1.684  0.2676  0.1805  0.2204
  374DMC     O4 2242   3.461   3.100   1.586 -0.4757  0.1651 -0.1591
  374DMC     C5 2243   3.231   2.965   1.801  0.0712  0.0074  0.0830
  374DMC     C6 2244   3.532   3.219   1.612 -0.1446 -0.1031  0.1848
  375DMC     O1 2245   2.618   0.271   1.163  0.1896  0.1585 -0.1355
  375DMC     C2 2246   2.706   0.331   1.217 -0.1623  0.0856  0.5211
  375DMC     O3 2247   2.735   0.308   1.347  0.1040 -0.4080  0.3750
  375DMC     O4 2248   2.801   0.405   1.159 -0.0576 -0.4699 -0.0180
  375DMC     C5 2249   2.616   0.274   1.415 -0.1154 -0.1070  0.1443
  375DMC     C6 2250   2.781   0.417   1.019  0.5394  0.2629 -0.0518
  376DMC     O1 2251   1.530   1.573   1.822  0.3324  0.1009 -0.1153
  376DMC     C2 2252   1.504   1.630   1.924 -0.2266 -0.1577 -0.1155
  376DMC     O3 2253   1.567   1.621   2.042 -0.0856  0.3083 -0.1556
  376DMC     O4 2254   1.392   1.701   1.945 -0.1906 -0.1936  0.2049
  376DMC     C5 2255   1.682   1.540   2.045 -0.4168 -0.1569  0.1815
  376DMC     C6 2256   1.314   1.678   1.830  0.2569  0.1144 -0.1650
  377DMC     O1 2257   2.715   3.800   0.344 -0.5094  0.5001  0.0606
  377DMC     C2 2258   2.719   3.700   0.410  0.1240  0.2429 -0.3583
  377DMC     O3 2259   2.747   3.694   0.542 -0.5148 -0.0109 -0.2339
  377DMC     O4 2260   2.638   3.594   0.393 -0.2033  0.3761  0.3513
  377DMC     C5 2261   2.758   3.821   0.603  0.8018 -0.1250 -0.2106
  377DMC     C6 2262   2.549   3.618   0.287  0.4122  0.4077 -0.1616
  378DMC     O1 2263   3.908   0.940   1.163 -0.2149 -0.1913 -0.3539
  378DMC     C2 2264   3.818   0.994   1.105 -0.2482 -0.2314 -0.3394
  378DMC     O3 2265   3.717   1.052   1.172  0.1663  0.1315 -0.0249
  378DMC     O4 2266   3.775   0.957   0.983  0.1955 -0.2140 -0.5028
  378DMC     C5 2267   3.738   1.045   1.311 -0.4215 -0.0069  0.0588
  378DMC     C6 2268   3.848   0.844   0.940 -0.0510 -0.3952 -0.4435
  379DMC     O1 2269   0.445   3.647   0.781  0.0152  0.0729  0.2439
  379DMC     C2 2270   0.553   3.614   0.740  0.1060  0.5327  0.1084
  379DMC     O3 2271   0.613   3.660   0.629  0.0713  0.6204  0.1261
  379DMC     O4 2272   0.648   3.559   0.817 -0.1805 -0.1613 -0.0273
  379DMC     C5 2273   0.530   3.736   0.543 -0.1534  0.1376 -0.0867
  379DMC     C6 2274   0.617   3.531   0.952 -0.0980  0.5006  0.1303
  380DMC     O1 2275   2.530   3.299   2.206  0.0902  0.2602  0.1204
  380DMC     C2 2276   2.632   3.306   2.143 -0.0787 -0.4399 -0.2444
  380DMC     O3 2277   2.640   3.282   2.011  0.1085  0.0309 -0.3238
  380DMC     O4 2278   2.748   3.350   2.194 -0.0544 -0.3933 -0.3391
  380DMC     C5 2279   2.520   3.227   1.960 -0.0251 -0.5311  0.5768
  380DMC     C6 2280   2.748   3.357   2.335  0.2883  0.6640 -0.3808
  381DMC     O1 2281   3.913   1.523   0.035 -0.2409  0.9314 -0.0094
  381DMC     C2 2282   0.007   1.540   0.128 -0.2262 -0.1471  0.1906
  381DMC     O3 2283   0.056   1.448   0.213 -0.1056 -0.1585  0.1095
  381DMC     O4 2284   0.069   1.659   0.141 -0.1005 -0.1457 -0.4024
  381DMC     C5 2285   3.976   1.323   0.189 -0.2678 -0.1816  0.6266
  381DMC     C6 2286   0.042   1.745   0.032  0.4632  0.0186 -0.4150
  382DMC     O1 2287   0.185   2.338   3.795 -0.2645 -0.1732  0.0889
  382DMC     C2 2288   0.286   2.344   3.731 -0.4693  0.3930 -0.1812
  382DMC     O3 2289   0.323   2.241   3.654 -0.0905 -0.2205  0.8092
  382DMC     O4 2290   0.321   2.457   3.667  0.4902  0.0812 -0.2247
  382DMC     C5 2291   0.301   2.111   3.705  0.6893 -0.3609  0.8021
  382DMC     C6 2292   0.251   2.575   3.699 -0.7417 -0.6986  0.0181
  383DMC     O1 2293   0.256   0.953   2.705  0.5587 -0.7180  0.2480
  383DMC     C2 2294   0.315   1.029   2.634 -0.6228 -0.1740 -0.1763
  383DMC     O3 2295   0.282   1.155   2.600 -0.3338 -0.0452  0.0121
  383DMC     O4 2296   0.436   0.997   2.585 -0.3979  0.2494  0.0985
  383DMC     C5 2297   0.159   1.206   2.648 -0.4694 -0.3518 -0.0071
  383DMC     C6 2298   0.473   0.861   2.591 -0.1372  0.3101 -0.1047
  384DMC     O1 2299   0.431   0.425   1.031 -0.2190  0.0395 -0.3086
  384DMC     C2 2300   0.436   0.515   0.952 -0.1129  0.6007  0.3197
  384DMC     O3 2301   0.526   0.512   0.853 -0.3365 -0.0351  0.1289
  384DMC     O4 2302   0.345   0.612   0.932 -0.5588  0.1308  0.0347
  384DMC     C5 2303   0.563   0.378   0.831  0.1363  0.1400 -0.1555
  384DMC     C6 2304   0.214   0.603   0.983 -0.3551 -0.0509  0.5260
  385DMC     O1 2305   0.052   1.824   2.969  0.3467  0.5504  0.4777
  385DMC     C2 2306   3.948   1.834   3.054 -0.0963 -0.0592  0.1238
  385DMC     O3 2307   3.956   1.810   3.186  0.1106 -0.0486  0.1134
  385DMC     O4 2308   3.832   1.896   3.025  0.0127  0.1189  0.0688
  385DMC     C5 2309   0.097   1.748   3.222  0.3184  0.2238 -0.1137
  385DMC     C6 2310   3.827   1.935   2.889  0.0391 -0.3311 -0.0614
  386DMC     O1 2311   3.047   0.284   3.065 -0.0984  0.1106  0.5882
  386DMC     C2 2312   2.939   0.248   3.103 -0.1788 -0.4613 -0.1652
  386DMC     O3 2313   2.823   0.309   3.075 -0.0998  0.0346  0.5785
  386DMC     O4 2314   2.909   0.192   3.221 -0.0281 -0.2900 -0.0452
  386DMC     C5 2315   2.835   0.421   2.990  0.1949 -0.2633  0.2267
  386DMC     C6 2316   3.018   0.125   3.281 -0.2231 -0.3767  0.2134
  387DMC     O1 2317   3.078   1.819   2.207 -0.0523 -0.0886 -0.0504
  387DMC     C2 2318   3.047   1.714   2.158 -0.5748 -0.2066  0.5228
  387DMC     O3 2319   3.132   1.611   2.170 -0.2409 -0.0171 -0.1452
  387DMC     O4 2320   3.004   1.722   2.031  0.7954 -0.1055  0.0421
  387DMC     C5 2321   3.244   1.643   2.251 -0.2177 -0.3035 -0.0613
  387DMC     C6 2322   2.952   1.850   2.002 -0.2187 -0.4836  0.1296
  388DMC     O1 2323   3.112   2.195   3.741  0.0961 -0.0993  0.1666
  388DMC     C2 2324   3.212   2.195   3.675  0.0985  0.1456  0.1700
  388DMC     O3 2325   3.239   2.106   3.578  0.0310  0.1070  0.1871
  388DMC     O4 2326   3.270   2.309   3.635  0.2543  0.1718  0.4618
  388DMC     C5 2327   3.153   1.994   3.582  0.3349 -0.1263  0.2258
  388DMC     C6 2328   3.211   2.422   3.696 -0.1513 -0.2018  0.7733
  389DMC     O1 2329   0.304   2.011   2.358  0.3993  0.0640 -0.3187
  389DMC     C2 2330   0.225   1.925   2.333 -0.3051  0.6478 -0.1357
  389DMC     O3 2331   0.182   1.896   2.209 -0.2043 -0.2202  0.0222
  389DMC     O4 2332   0.188   1.830   2.421  0.2360  0.1371 -0.4529
  389DMC     C5 2333   0.214   1.996   2.115 -0.1296 -0.2370  0.0295
  389DMC     C6 2334   0.277   1.836   2.531 -0.1022  0.0559 -0.1720
  390DMC     O1 2335   0.247   2.437   1.549 -0.2046 -0.5411 -0.0663
  390DMC     C2 2336   0.359   2.444   1.591 -0.0825 -0.2509 -0.4312
  390DMC     O3 2337   0.429   2.340   1.639 -0.5280 -0.2410  0.2584
  390DMC     O4 2338   0.452   2.532   1.550  0.4723 -0.7421 -0.2345
  390DMC     C5 2339   0.364   2.215   1.639  0.4688 -0.7719  0.0755
  390DMC     C6 2340   0.423   2.583   1.422  1.0903 -0.4015 -0.2396
  391DMC     O1 2341   1.079   2.218   3.289 -0.2798  0.2762  0.0413
  391DMC     C2 2342   0.973   2.253   3.331 -0.3030  0.4574 -0.1669
  391DMC     O3 2343   0.861   2.180   3.313  0.1593 -0.4713  0.6858
  391DMC     O4 2344   0.945   2.376   3.379  0.1880  0.3793  0.3287
  391DMC     C5 2345   0.878   2.058   3.244 -0.3749 -0.2542  0.1686
  391DMC     C6 2346   1.045   2.472   3.354  0.5265 -0.1587 -0.4134
  392DMC     O1 2347   3.533   1.559   3.155  0.3842 -0.2893  0.1179
  392DMC     C2 2348   3.534   1.589   3.038 -0.2299  0.2564  0.2448
  392DMC     O3 2349   3.566   1.502   2.941  0.1302  0.1623  0.4438
  392DMC     O4 2350   3.483   1.700   2.982  0.0268  0.3389  0.1700
  392DMC     C5 2351   3.632   1.386   2.988  0.4431  0.0515 -0.2563
  392DMC     C6 2352   3.439   1.801   3.070 -0.7061  0.2477 -0.0806
  393DMC     O1 2353   2.651   3.313   0.720 -0.1129  0.0895 -0.0596
  393DMC     C2 2354   2.678   3.270   0.829 -0.1771  0.6033  0.1596
  393DMC     O3 2355   2.698   3.347   0.937  0.0803 -0.2856  0.7493
  393DMC     O4 2356   2.690   3.142   0.866  0.3225  0.7177  0.4064
  393DMC     C5 2357   2.682   3.481   0.896  0.5863 -0.4884 -0.1121
  393DMC     C6 2358   2.659   3.067   0.751 -0.1763  0.4937  0.6813
  394DMC     O1 2359   1.079   2.173   0.502 -0.1462  0.1159  0.3080
  394DMC     C2 2360   1.109   2.286   0.475  0.4287 -0.0836  0.1005
  394DMC     O3 2361   1.081   2.401   0.538  0.2877 -0.2917  0.4205
  394DMC     O4 2362   1.172   2.316   0.360 -0.1923  0.3764 -0.1279
  394DMC     C5 2363   1.021   2.386   0.665  0.4004 -0.3928  0.4613
  394DMC     C6 2364   1.177   2.212   0.264 -0.2005  0.2975 -0.0427
  395DMC     O1 2365   2.886   1.302   3.809 -0.1404  0.2687 -0.4968
  395DMC     C2 2366   2.841   1.194   3.783 -0.1887  0.0560  0.4266
  395DMC     O3 2367   2.728   1.180   3.711  0.1132 -0.0829 -0.0267
  395DMC     O4 2368   2.896   1.071   3.795 -0.1999  0.0559  0.4709
  395DMC     C5 2369   2.656   1.300   3.698 -0.1409 -0.2378 -0.0371
  395DMC     C6 2370   3.019   1.085   3.862 -0.0771  0.2496  0.2063
  396DMC     O1 2371   1.043   0.316   2.719  0.1384 -0.2570  0.0295
  396DMC     C2 2372   1.035   0.271   2.829 -0.2205  0.1949  0.1900
  396DMC     O3 2373   0.937   0.187   2.868 -0.1107  0.1287  0.3250
  396DMC     O4 2374   1.134   0.285   2.919 -0.0671 -0.4357  0.1247
  396DMC     C5 2375   0.844   0.158   2.767 -0.1944  0.6687  0.2446
  396DMC     C6 2376   1.228   0.376   2.868 -0.1907 -0.1621  0.3816
  397DMC     O1 2377   3.555   1.005   2.163  0.4554  0.0611  0.4308
  397DMC     C2 2378   3.651   0.986   2.093  0.2552 -0.1745  0.2182
  397DMC     O3 2379   3.751   1.074   2.083 -0.5892  0.7250 -0.5647
  397DMC     O4 2380   3.657   0.887   2.002  0.1029 -0.0465  0.0665
  397DMC     C5 2381   3.753   1.168   2.188  0.4752  0.0392  0.0495
  397DMC     C6 2382   3.528   0.845   1.965  0.0606  0.2176 -0.0900
  398DMC     O1 2383   3.307   1.061   0.940 -0.1203  0.1473 -0.3371
  398DMC     C2 2384   3.283   1.004   0.837 -0.9341  0.0794 -0.1184
  398DMC     O3 2385   3.215   0.888   0.826 -0.1154 -0.4631  0.3879
  398DMC     O4 2386   3.369   1.008   0.734 -0.2270 -0.4281  0.4407
  398DMC     C5 2387   3.171   0.835   0.949 -0.3167 -0.6285  0.2458
  398DMC     C6 2388   3.494   1.055   0.780 -0.3443  0.4842 -0.1578
  399DMC     O1 2389   2.324   0.180   2.114 -0.5149 -0.2303  0.1975
  399DMC     C2 2390   2.349   0.077   2.172  0.1409 -0.1759  0.0141
  399DMC     O3 2391   2.465   0.054   2.236  0.4414 -0.3605 -0.5868
  399DMC     O4 2392   2.261   3.965   2.217  0.2289 -0.0631  0.4219
  399DMC     C5 2393   2.553   0.156   2.197  0.3780 -0.1143 -0.1043
  399DMC     C6 2394   2.129   0.037   2.213  0.2375 -0.0586  0.1413
  400DMC     O1 2395   3.087   2.479   2.314  0.2362 -0.0361  0.3860
  400DMC     C2 2396   3.095   2.598   2.296  0.0172 -0.0962 -0.1296
  400DMC     O3 2397   3.023   2.661   2.202 -0.1943  0.0520  0.1325
  400DMC     O4 2398   3.171   2.684   2.366  0.2151  0.0232 -0.4908
  400DMC     C5 2399   2.934   2.573   2.137 -0.5429  0.5732 -0.1070
  400DMC     C6 2400   3.229   2.643   2.487 -0.0415  0.8984 -0.0623
  401DMC     O1 2401   3.330   1.597   0.953 -0.1516  0.0035 -0.5279
  401DMC     C2 2402   3.406   1.508   0.925 -0.1807 -0.2676  0.2209
  401DMC     O3 2403   3.414   1.386   0.980  0.2840 -0.1975  0.3127
  401DMC     O4 2404   3.498   1.533   0.831 -0.2303 -0.2775  0.1697
  401DMC     C5 2405   3.341   1.366   1.099 -0.4160  0.7493  0.0531
  401DMC     C6 2406   3.489   1.667   0.787 -0.1803 -0.2521  0.2372
  402DMC     O1 2407   0.594   3.122   3.918  0.5499  0.0519  0.1366
  402DMC     C2 2408   0.581   3.232   3.966 -0.2131  0.1457 -0.2807
  402DMC     O3 2409   0.473   3.311   3.964 -0.4485 -0.1654  0.0250
  402DMC     O4 2410   0.635   3.258   0.108 -0.4542 -0.7023  0.0193
  402DMC     C5 2411   0.380   3.250   3.877 -0.3041 -0.2634 -0.0594
  402DMC     C6 2412   0.756   3.192   0.138 -0.1798 -0.2595 -0.0948
  403DMC     O1 2413   0.735   3.646   1.231 -0.5800  0.2325 -0.1453
  403DMC     C2 2414   0.792   3.677   1.332  0.3688 -0.4093 -0.4689
  403DMC     O3 2415   0.800   3.621   1.454  0.7240 -0.0732 -0.3364
  403DMC     O4 2416   0.857   3.795   1.337 -0.3701 -0.0102 -0.0827
  403DMC     C5 2417   0.729   3.500   1.467 -0.0547  0.3497 -0.6072
  403DMC     C6 2418   0.868   3.855   1.210  0.3857  0.0411  0.0018
  404DMC     O1 2419   2.136   0.231   3.630  0.4290  0.0343 -0.2152
  404DMC     C2 2420   2.103   0.116   3.634  0.0110  0.1550 -0.0821
  404DMC     O3 2421   2.128   0.029   3.534 -0.4143 -0.2844  0.1900
  404DMC     O4 2422   2.057   0.049   3.741 -0.0813 -0.1511 -0.3127
  404DMC     C5 2423   2.178   0.099   3.422  0.1080 -0.9052  0.0358
  404DMC     C6 2424   2.069   0.120   3.862 -0.7679 -0.5049 -0.0297
  405DMC     O1 2425   0.419   0.618   1.326 -0.2686  0.3576  0.1937
  405DMC     C2 2426   0.519   0.556   1.347 -0.3222  0.0933 -0.3360
  405DMC     O3 2427   0.530   0.422   1.340 -0.2065  0.0965 -0.2102
  405DMC     O4 2428   0.644   0.605   1.333 -0.2358  0.0625  0.3200
  405DMC     C5 2429   0.405   0.357   1.338 -0.2670  0.2182 -0.3679
  405DMC     C6 2430   0.620   0.734   1.281  0.5789  0.2879  0.5037
  406DMC     O1 2431   2.763   0.208   2.631 -0.2552  0.3802  0.2896
  406DMC     C2 2432   2.869   0.210   2.687  0.1969 -0.1793 -0.5288
  406DMC     O3 2433   2.956   0.313   2.677 -0.0299  0.0719  0.0559
  406DMC     O4 2434   2.905   0.127   2.786  0.0717  0.0358 -0.3041
  406DMC     C5 2435   2.914   0.406   2.579 -0.1624 -0.2642 -0.2110
  406DMC     C6 2436   2.796   0.049   2.828 -0.1276  0.1932 -0.5252
  407DMC     O1 2437   3.774   0.829   2.779  0.1714  0.7328 -0.3969
  407DMC     C2 2438   3.751   0.785   2.670 -0.2388  0.5136 -0.2244
  407DMC     O3 2439   3.686   0.670   2.643  0.6777 -0.0862  0.0870
  407DMC     O4 2440   3.727   0.863   2.564  0.2167  0.4122 -0.4054
  407DMC     C5 2441   3.655   0.595   2.759  0.3007 -0.3879 -0.2067
  407DMC     C6 2442   3.752   0.998   2.599  0.2305  0.2163  0.3528
  408DMC     O1 2443   1.579   2.028   0.168 -0.3132  0.0469 -0.3911
  408DMC     C2 2444   1.575   1.913   0.201  0.2843  0.1786  0.1663
  408DMC     O3 2445   1.643   1.860   0.304  0.2410  0.1440  0.1772
  408DMC     O4 2446   1.503   1.823   0.132  0.2044  0.2155  0.2009
  408DMC     C5 2447   1.699   1.963   0.381 -0.3558  0.4115  0.2537
  408DMC     C6 2448   1.456   1.871   0.008 -0.1179 -0.6268 -0.0114
  409DMC     O1 2449   1.365   2.677   1.487 -0.1301  0.2433 -0.1793
  409DMC     C2 2450   1.337   2.586   1.413  0.1183  0.3849 -0.4503
  409DMC     O3 2451   1.396   2.466   1.415 -0.0043  0.3264 -0.3146
  409DMC     O4 2452   1.237   2.585   1.323 -0.3902 -0.0116  0.1114
  409DMC     C5 2453   1.517   2.449   1.485  0.1295 -0.8017 -0.7886
  409DMC     C6 2454   1.184   2.713   1.302  0.2414  0.2118 -0.1524
  410DMC     O1 2455   0.153   2.793   2.453  0.2273  0.2619 -0.5548
  410DMC     C2 2456   0.123   2.679   2.430 -0.5586  0.4172 -0.3356
  410DMC     O3 2457   0.103   2.583   2.522 -0.4555  0.2671 -0.4702
  410DMC     O4 2458   0.095   2.636   2.306 -0.1436 -0.2336 -0.2104
  410DMC     C5 2459   0.129   2.616   2.656 -0.7428  0.5971 -0.4922
  410DMC     C6 2460   0.069   2.748   2.224  0.0816  0.2990  0.4376
  411DMC     O1 2461   2.257   0.010   0.855  0.3622 -0.3124  0.4051
  411DMC     C2 2462   2.206   0.112   0.891  0.1466 -0.0588 -0.6011
  411DMC     O3 2463   2.072   0.129   0.893  0.1183 -0.2892 -0.5314
  411DMC     O4 2464   2.271   0.223   0.930 -0.2039  0.0357 -0.2832
  411DMC     C5 2465   1.991   0.026   0.840  0.1940 -0.3849 -0.4611
  411DMC     C6 2466   2.411   0.227   0.920 -0.1758 -0.8076 -0.2219
  412DMC     O1 2467   2.024   1.385   3.019  0.2797  0.3688 -0.4822
  412DMC     C2 2468   2.048   1.493   3.065  0.2231  0.1333  0.1183
  412DMC     O3 2469   2.077   1.526   3.192 -0.1490  0.2398  0.1750
  412DMC     O4 2470   2.017   1.609   3.005  0.4194  0.0946 -0.0581
  412DMC     C5 2471   2.068   1.414   3.278  0.4805  0.0313 -0.0287
  412DMC     C6 2472   1.960   1.589   2.877  0.0165 -0.8849  0.2695
  413DMC     O1 2473   2.615   2.152   2.509 -0.2983 -0.3182 -0.8694
  413DMC     C2 2474   2.600   2.042   2.555  0.4929 -0.1231 -0.1100
  413DMC     O3 2475   2.490   1.987   2.610  0.3784  0.2884  0.0733
  413DMC     O4 2476   2.682   1.943   2.514 -0.0642 -0.3603 -0.6722
  413DMC     C5 2477   2.396   2.090   2.629  0.1696  0.1498 -0.2006
  413DMC     C6 2478   2.784   1.976   2.423  0.1755  0.0057 -0.2710
  414DMC     O1 2479   3.333   0.254   3.377 -0.0797 -0.1183  0.3436
  414DMC     C2 2480   3.343   0.352   3.445 -0.0297  0.2796 -0.2318
  414DMC     O3 2481   3.303   0.341   3.573 -0.2692 -0.0856 -0.3378
  414DMC     O4 2482   3.329   0.477   3.397  0.0632  0.2569 -0.3183
  414DMC     C5 2483   3.291   0.204   3.603  0.1806 -0.1241 -0.3197
  414DMC     C6 2484   3.266   0.493   3.272  0.0799 -0.4778 -0.4290
  415DMC     O1 2485   2.820   0.356   0.698  0.3180  0.0735 -0.2509
  415DMC     C2 2486   2.741   0.266   0.694 -0.2133  0.5182  0.0145
  415DMC     O3 2487   2.768   0.140   0.733 -0.1402  0.4825 -0.1482
  415DMC     O4 2488   2.609   0.282   0.672 -0.2699  0.3297  0.2096
  415DMC     C5 2489   2.908   0.123   0.741 -0.1289  0.5202 -0.2674
  415DMC     C6 2490   2.575   0.418   0.655 -0.3312  0.2403 -0.4182
  416DMC     O1 2491   3.630   1.002   0.424 -0.1382  0.1330 -0.2016
  416DMC     C2 2492   3.615   0.941   0.321  0.1990 -0.3115  0.0060
  416DMC     O3 2493   3.510   0.866   0.285 -0.6042  0.8026 -0.0414
  416DMC     O4 2494   3.703   0.940   0.220  0.0897 -0.1454 -0.0909
  416DMC     C5 2495   3.401   0.852   0.374  0.0530 -0.7258  0.5532
  416DMC     C6 2496   3.812   1.029   0.236  0.1718 -0.3460  0.4907
  417DMC     O1 2497   2.651   3.635   2.041  0.0232 -0.2282  0.0409
  417DMC     C2 2498   2.554   3.689   1.997 -0.2944 -0.4823  0.4238
  417DMC     O3 2499   2.447   3.715   2.074 -0.3359 -0.3527  0.3227
  417DMC     O4 2500   2.515   3.674   1.869 -0.3749  0.1386  0.3699
  417DMC     C5 2501   2.483   3.718   2.210 -0.0095 -0.5114  0.2402
  417DMC     C6 2502   2.621   3.617   1.796 -0.3455  0.0767  0.4611
  418DMC     O1 2503   2.984   2.670   0.786  0.2903 -0.0667 -0.1022
  418DMC     C2 2504   2.869   2.699   0.768  0.3890  0.4165  0.0492
  418DMC     O3 2505   2.776   2.705   0.865  0.0543 -0.4137 -0.2117
  418DMC     O4 2506   2.829   2.765   0.658 -0.2193  0.4332  0.2770
  418DMC     C5 2507   2.812   2.682   0.999  0.4167  0.6234 -0.1253
  418DMC     C6 2508   2.933   2.809   0.574  0.0961 -0.2363  0.3144
  419DMC     O1 2509   2.604   2.904   1.191  0.1908  0.3234  0.3958
  419DMC     C2 2510   2.503   2.968   1.197 -0.9229 -1.3881  0.5286
  419DMC     O3 2511   2.415   2.979   1.096  0.3240  0.1101 -0.4439
  419DMC     O4 2512   2.452   3.016   1.312 -0.0226  0.0599  0.3562
  419DMC     C5 2513   2.461   2.936   0.970  0.0704 -0.3292 -0.3886
  419DMC     C6 2514   2.532   2.991   1.425  0.3396  0.0410  0.0963
  420DMC     O1 2515   3.579   3.319   0.804  0.3034 -0.5693  0.0022
  420DMC     C2 2516   3.595   3.267   0.697  0.1567 -0.7948  0.0898
  420DMC     O3 2517   3.500   3.246   0.604  0.2848  0.3677 -0.3110
  420DMC     O4 2518   3.707   3.260   0.623  0.1645 -0.4310  0.0668
  420DMC     C5 2519   3.379   3.293   0.658  0.3412  0.1905 -0.0273
  420DMC     C6 2520   3.819   3.295   0.701  0.2618  0.1334 -0.3215
  421DMC     O1 2521   3.221   0.591   0.014 -0.6554  0.3739  0.2589
  421DMC     C2 2522   3.199   0.690   3.928  0.3081  0.4718  0.0612
  421DMC     O3 2523   3.194   0.687   3.794  0.0727 -0.8596  0.0859
  421DMC     O4 2524   3.127   0.793   3.977 -0.0445  0.3656 -0.2292
  421DMC     C5 2525   3.287   0.596   3.740  0.7839 -0.2011  0.1854
  421DMC     C6 2526   3.129   0.806   0.140  0.8437 -0.2406 -0.1796
  422DMC     O1 2527   1.717   0.278   3.911 -0.2783 -0.0971 -0.2134
  422DMC     C2 2528   1.626   0.204   3.885 -0.3010  0.0162 -0.4596
  422DMC     O3 2529   1.596   0.145   3.768 -0.3936  0.3601 -0.6117
  422DMC     O4 2530   1.530   0.175   3.975  0.6118 -0.1368  0.4856
  422DMC     C5 2531   1.698   0.152   3.671  0.2106 -0.3894 -0.0524
  422DMC     C6 2532   1.582   0.183   0.128  0.3894 -0.0009  0.5671
  423DMC     O1 2533   1.075   3.347   1.008 -0.4999 -0.5658 -0.5103
  423DMC     C2 2534   0.982   3.290   0.957 -0.6173 -0.3319 -0.5590
  423DMC     O3 2535   0.967   3.268   0.826 -0.2153 -0.0304 -0.6587
  423DMC     O4 2536   0.860   3.284   1.014 -0.1828 -0.2370  0.4004
  423DMC     C5 2537   1.075   3.323   0.754 -0.0796  0.2060 -0.2761
  423DMC     C6 2538   0.848   3.331   1.147 -0.3521  0.6568  0.0739
  424DMC     O1 2539   3.940   0.848   3.281 -0.2250 -0.0462 -0.2182
  424DMC     C2 2540   0.003   0.960   3.284 -0.6395  0.1104 -0.0751
  424DMC     O3 2541   0.015   1.043   3.179 -0.0540  0.2447  0.0960
  424DMC     O4 2542   0.006   1.033   3.397  0.4945 -0.4904  0.2919
  424DMC     C5 2543   3.950   0.987   3.058  0.0245 -0.1192  0.2343
  424DMC     C6 2544   3.924   0.960   3.501 -0.3394 -0.0422  0.1170
  425DMC     O1 2545   2.677   1.745   2.114  0.0343  0.1457  0.3990
  425DMC     C2 2546   2.599   1.655   2.097 -0.0007  0.1358  0.6156
  425DMC     O3 2547   2.498   1.656   2.008  0.5153  0.1410  0.0242
  425DMC     O4 2548   2.588   1.554   2.185  0.3598 -0.3151  0.1473
  425DMC     C5 2549   2.512   1.766   1.921  0.2244  0.0038 -0.1929
  425DMC     C6 2550   2.683   1.563   2.289  0.3742  0.1619  0.0953
  426DMC     O1 2551   1.437   1.232   1.206 -0.2006  0.3989  0.0143
  426DMC     C2 2552   1.370   1.133   1.198  0.0179  0.2425  0.0936
  426DMC     O3 2553   1.237   1.131   1.218 -0.0158  0.2544 -0.1298
  426DMC     O4 2554   1.412   1.006   1.201 -0.3601  0.0922 -0.7880
  426DMC     C5 2555   1.184   1.261   1.237 -0.0170  0.1120  0.8614
  426DMC     C6 2556   1.551   1.002   1.175 -0.1748  0.8735  0.0574
  427DMC     O1 2557   3.761   2.969   2.301  0.3946 -0.6854 -0.0662
  427DMC     C2 2558   3.783   2.987   2.418 -0.1686  0.0806 -0.0753
  427DMC     O3 2559   3.831   3.098   2.474  0.5023 -0.1494 -0.1874
  427DMC     O4 2560   3.762   2.888   2.507  0.0648  0.1283  0.0332
  427DMC     C5 2561   3.895   3.187   2.385  0.9807  0.0411  0.3337
  427DMC     C6 2562   3.705   2.776   2.443 -0.2994  0.1981  0.2324
  428DMC     O1 2563   1.762   0.303   3.349 -0.1900 -0.7271  0.3465
  428DMC     C2 2564   1.835   0.257   3.266 -0.0597 -0.5487  0.3592
  428DMC     O3 2565   1.825   0.133   3.215 -0.0214 -0.5597  0.3787
  428DMC     O4 2566   1.960   0.302   3.251 -0.4531  0.1954 -0.7709
  428DMC     C5 2567   1.727   0.051   3.276 -0.2258 -0.2705  0.4380
  428DMC     C6 2568   1.999   0.404   3.340  0.2244 -0.6364 -0.1004
  429DMC     O1 2569   1.163   3.459   0.485 -0.1937 -0.1774 -0.0493
  429DMC     C2 2570   1.263   3.437   0.421 -0.0042 -0.6895  0.4093
  429DMC     O3 2571   1.257   3.387   0.296  0.1120 -0.2822  0.2387
  429DMC     O4 2572   1.382   3.494   0.445 -0.4571  0.2378  0.4800
  429DMC     C5 2573   1.132   3.342   0.249  0.0335  0.2860 -0.1036
  429DMC     C6 2574   1.388   3.543   0.577 -0.0456 -0.0527  0.5681
  430DMC     O1 2575   0.443   0.954   2.998 -0.3437  0.1605  0.4295
  430DMC     C2 2576   0.501   1.045   2.946  0.0581  0.1909  0.9265
  430DMC     O3 2577   0.621   1.035   2.886 -0.3117  0.0953  0.1928
  430DMC     O4 2578   0.450   1.168   2.931  0.4505  0.2312 -0.1475
  430DMC     C5 2579   0.687   0.911   2.899  0.3009  0.3629 -0.3283
  430DMC     C6 2580   0.331   1.170   3.007  0.4044  0.6365 -0.2294
  431DMC     O1 2581   1.696   3.169   0.713  0.0299  0.5777  0.2255
  431DMC     C2 2582   1.578   3.188   0.702 -0.1298 -0.2483  0.4401
  431DMC     O3 2583   1.489   3.122   0.625  0.0369  0.0093  0.0225
  431DMC     O4 2584   1.518   3.292   0.762 -0.1453  0.1774 -0.2945
  431DMC     C5 2585   1.553   3.028   0.542  0.1672  0.0091  0.1213
  431DMC     C6 2586   1.596   3.369   0.850 -0.0021 -0.5135  0.1929
  432DMC     O1 2587   3.375   3.801   2.916  0.8242 -0.6691 -0.2036
  432DMC     C2 2588   3.310   3.712   2.868 -0.3730 -0.0628  0.2602
  432DMC     O3 2589   3.231   3.721   2.759 -0.0333 -0.0511  0.0151
  432DMC     O4 2590   3.331   3.582   2.893 -0.1164 -0.0432  0.1496
  432DMC     C5 2591   3.210   3.850   2.705  0.1567  0.0128  0.0927
  432DMC     C6 2592   3.430   3.563   2.992  0.1286 -0.0891 -0.1046
  433DMC     O1 2593   0.448   2.568   2.678 -0.2303  0.5511  0.3430
  433DMC     C2 2594   0.561   2.608   2.676  0.0946 -0.3824 -0.0114
  433DMC     O3 2595   0.611   2.669   2.568  0.0278  0.1166  0.2398
  433DMC     O4 2596   0.640   2.628   2.784 -0.0348  0.5474 -0.0836
  433DMC     C5 2597   0.506   2.687   2.475 -0.1074  0.2603  0.4193
  433DMC     C6 2598   0.574   2.598   2.905  0.3160  0.2638  0.0377
  434DMC     O1 2599   2.541   3.012   3.666 -0.5288 -0.8550 -0.0512
  434DMC     C2 2600   2.636   2.939   3.657  0.3658  0.2414  0.1725
  434DMC     O3 2601   2.711   2.913   3.548  0.3668 -0.3905  0.3225
  434DMC     O4 2602   2.647   2.832   3.738 -0.2221 -0.3458 -0.5102
  434DMC     C5 2603   2.664   2.964   3.426 -0.2379  0.0280  0.7226
  434DMC     C6 2604   2.531   2.804   3.812  0.1241  0.1530  0.2332
  435DMC     O1 2605   1.193   3.212   2.502 -0.0983  0.2037  0.1205
  435DMC     C2 2606   1.202   3.171   2.614  0.1378  0.3110  0.1410
  435DMC     O3 2607   1.142   3.238   2.714  0.0462  0.2994  0.0940
  435DMC     O4 2608   1.203   3.038   2.634 -0.5781  0.2845  0.0437
  435DMC     C5 2609   1.098   3.369   2.687 -0.3472  0.0853 -0.3206
  435DMC     C6 2610   1.245   2.962   2.523 -0.2156  0.6625 -0.0793
  436DMC     O1 2611   1.229   1.115   2.801 -0.1355 -0.3619  0.0581
  436DMC     C2 2612   1.194   1.205   2.729 -0.1678 -0.4767 -0.0710
  436DMC     O3 2613   1.248   1.220   2.607  0.0764  0.5857  0.1609
  436DMC     O4 2614   1.069   1.253   2.729 -0.0990 -0.2993 -0.1673
  436DMC     C5 2615   1.339   1.116   2.578 -0.4856  0.0959  0.1415
  436DMC     C6 2616   0.994   1.166   2.810 -0.1319 -0.4439 -0.3530
  437DMC     O1 2617   0.268   3.429   2.361 -0.1828 -0.3341  0.0583
  437DMC     C2 2618   0.272   3.371   2.465  0.3942 -0.2210  0.1035
  437DMC     O3 2619   0.235   3.418   2.585 -0.1855 -0.1792 -0.0893
  437DMC     O4 2620   0.255   3.238   2.475  0.2319 -0.2331 -0.3373
  437DMC     C5 2621   0.212   3.557   2.576  0.1351 -0.1376 -0.2727
  437DMC     C6 2622   0.290   3.171   2.355 -0.2950 -0.0541 -0.5935
  438DMC     O1 2623   3.524   0.279   3.950 -0.1286 -0.5235  0.3362
  438DMC     C2 2624   3.609   0.347   3.899 -0.1017 -0.2753  0.6978
  438DMC     O3 2625   3.646   0.469   3.940 -0.1282  0.0103 -0.1130
  438DMC     O4 2626   3.656   0.321   3.776 -0.1378  0.6619  0.4805
  438DMC     C5 2627   3.572   0.489   0.080  0.3138  0.0592  0.1569
  438DMC     C6 2628   3.744   0.402   3.701 -0.4068 -0.1316 -0.7319
  439DMC     O1 2629   1.524   2.956   3.248  0.1397 -0.1287 -0.5875
  439DMC     C2 2630   1.530   2.842   3.286  0.1858  0.0522 -0.0357
  439DMC     O3 2631   1.435   2.752   3.259 -0.0779  0.1211  0.6634
  439DMC     O4 2632   1.636   2.777   3.338  0.1696 -0.0445 -0.1240
  439DMC     C5 2633   1.323   2.805   3.190  0.6126  0.2420 -0.3844
  439DMC     C6 2634   1.739   2.866   3.374 -0.1874  0.2354  0.2052
  440DMC     O1 2635   1.956   2.533   0.878 -0.2027 -0.2432 -0.0657
  440DMC     C2 2636   2.016   2.435   0.914  0.0776 -0.0833 -0.0983
  440DMC     O3 2637   1.956   2.316   0.903 -0.0803 -0.0263  0.1424
  440DMC     O4 2638   2.132   2.437   0.982 -0.1846 -0.2627  0.3526
  440DMC     C5 2639   1.829   2.324   0.843  0.0133 -0.4582 -0.1227
  440DMC     C6 2640   2.167   2.572   1.001 -0.1153 -0.2911  0.4274
  441DMC     O1 2641   1.635   2.091   2.778  0.1246 -0.1586 -0.0120
  441DMC     C2 2642   1.629   2.180   2.698  0.3036  0.1158  0.2793
  441DMC     O3 2643   1.595   2.168   2.569  0.0956 -0.2609  0.3655
  441DMC     O4 2644   1.681   2.303   2.711  0.4306  0.0692  0.2121
  441DMC     C5 2645   1.609   2.037   2.519 -0.0281 -0.0855 -0.1319
  441DMC     C6 2646   1.751   2.331   2.831  0.5627  0.1452  0.1181
  442DMC     O1 2647   2.304   3.288   2.600  0.1240 -0.3790  0.1557
  442DMC     C2 2648   2.225   3.311   2.514  0.4093 -1.0418 -0.2942
  442DMC     O3 2649   2.232   3.395   2.409  0.4424  0.0305  0.5510
  442DMC     O4 2650   2.106   3.249   2.507 -0.2957  0.1843  0.3423
  442DMC     C5 2651   2.338   3.488   2.414  0.3533  0.1385  0.4572
  442DMC     C6 2652   2.069   3.156   2.607 -0.6281 -0.0786 -0.0190
  443DMC     O1 2653   2.129   1.862   0.578 -0.5193  0.0446  0.3309
  443DMC     C2 2654   2.099   1.818   0.685 -0.3760 -0.2202  0.2638
  443DMC     O3 2655   2.076   1.686   0.702 -0.3593 -0.2188  0.2970
  443DMC     O4 2656   2.047   1.896   0.781 -0.4473  0.1092 -0.0423
  443DMC     C5 2657   2.134   1.594   0.612  0.0458  0.2969  0.0219
  443DMC     C6 2658   2.025   2.023   0.723  0.0479  0.1445 -0.1572
  444DMC     O1 2659   3.225   3.587   0.822 -0.0978  1.0215  0.3599
  444DMC     C2 2660   3.108   3.583   0.846 -0.1286  0.0197  0.0843
  444DMC     O3 2661   3.025   3.689   0.844 -0.0049  0.1155  0.0645
  444DMC     O4 2662   3.044   3.469   0.879 -0.3845  0.0085 -0.4288
  444DMC     C5 2663   3.093   3.810   0.817 -0.0275  0.0736 -0.1889
  444DMC     C6 2664   3.112   3.347   0.895  0.0723  0.3315  0.1443
  445DMC     O1 2665   2.445   0.408   3.616 -0.3214  0.1681  0.0751
  445DMC     C2 2666   2.364   0.423   3.529 -0.4301  0.3690  0.2114
  445DMC     O3 2667   2.371   0.376   3.403  0.0959  0.5281  0.1802
  445DMC     O4 2668   2.291   0.536   3.515 -0.2105  0.3964 -0.8002
  445DMC     C5 2669   2.504   0.330   3.387 -0.2360 -0.2315 -0.4370
  445DMC     C6 2670   2.315   0.628   3.620  0.5342 -0.3254 -0.3189
  446DMC     O1 2671   1.045   3.642   1.831 -0.0854  0.2216  0.1518
  446DMC     C2 2672   1.057   3.708   1.732  0.0576 -0.1061 -0.0495
  446DMC     O3 2673   1.001   3.830   1.722  0.7378  0.2233  0.1521
  446DMC     O4 2674   1.090   3.667   1.608 -0.0988  0.2821 -0.2214
  446DMC     C5 2675   0.937   3.868   1.842  0.6625  0.4667  0.0358
  446DMC     C6 2676   1.115   3.528   1.612  0.0075  0.3261  0.9565
  447DMC     O1 2677   2.701   0.030   3.803 -0.5327  0.0627  0.1959
  447DMC     C2 2678   2.664   0.044   3.690  0.5043 -0.0648 -0.1663
  447DMC     O3 2679   2.730   0.025   3.574  0.7373  0.1703 -0.0736
  447DMC     O4 2680   2.536   0.072   3.660  0.3535 -0.2813  0.2736
  447DMC     C5 2681   2.861   3.955   3.592  0.6100 -0.2510 -0.2611
  447DMC     C6 2682   2.471   0.085   3.784 -0.1207 -0.1425  0.0131
  448DMC     O1 2683   2.411   1.653   1.075  0.4548 -0.0592 -0.0968
  448DMC     C2 2684   2.342   1.652   0.976 -0.2269 -0.3061  0.3716
  448DMC     O3 2685   2.214   1.691   0.973 -0.0205  0.3629  0.0457
  448DMC     O4 2686   2.367   1.574   0.870 -0.4838  0.3695 -0.1892
  448DMC     C5 2687   2.181   1.754   1.095  0.4078  0.0103  0.3466
  448DMC     C6 2688   2.475   1.484   0.877 -0.7903 -0.0424 -0.6215
  449DMC     O1 2689   0.720   3.455   2.220  0.0037  0.1567 -0.3141
  449DMC     C2 2690   0.800   3.383   2.166  0.2650 -0.1524  0.4769
  449DMC     O3 2691   0.905   3.435   2.102  0.1329  0.1526  0.5037
  449DMC     O4 2692   0.758   3.269   2.108 -0.2241 -0.0912  0.7040
  449DMC     C5 2693   0.921   3.573   2.126  0.3246  0.1933  0.1550
  449DMC     C6 2694   0.617   3.257   2.098 -0.1276 -0.4010 -0.4149
  450DMC     O1 2695   3.697   2.119   2.570  0.2293  0.0028 -0.2452
  450DMC     C2 2696   3.645   2.042   2.494 -0.2856 -0.0975  0.2031
  450DMC     O3 2697   3.698   1.920   2.475 -0.2132 -0.0242 -0.0682
  450DMC     O4 2698   3.556   2.071   2.397 -0.0106  0.0079 -0.0195
  450DMC     C5 2699   3.824   1.897   2.534 -0.0652  0.3513 -0.2301
  450DMC     C6 2700   3.507   2.203   2.389 -0.2978 -0.1154 -0.3110
  451DMC     O1 2701   0.112   1.547   0.823  0.0351  0.0062 -0.6862
  451DMC     C2 2702   0.158   1.654   0.850 -0.3527  0.0847 -0.3270
  451DMC     O3 2703   0.243   1.722   0.770 -0.0954  0.2019  0.0433
  451DMC     O4 2704   0.188   1.688   0.977  0.1371 -0.5906 -0.2560
  451DMC     C5 2705   0.308   1.837   0.821 -0.2691  0.5044 -0.4080
  451DMC     C6 2706   0.142   1.589   1.067  0.3703 -0.4226  0.0481
  452DMC     O1 2707   0.517   0.254   3.219 -0.0631 -0.0292 -0.2267
  452DMC     C2 2708   0.443   0.168   3.258 -0.1124  0.0219 -0.2073
  452DMC     O3 2709   0.475   0.038   3.263  0.1008  0.1037  0.6233
  452DMC     O4 2710   0.312   0.186   3.281 -0.1524 -0.2192 -0.2428
  452DMC     C5 2711   0.365   3.928   3.261 -0.0457  0.2960 -0.0477
  452DMC     C6 2712   0.259   0.309   3.235  0.4443  0.2681  0.3482
  453DMC     O1 2713   1.027   1.353   2.009  0.2527 -0.6472 -0.3692
  453DMC     C2 2714   0.967   1.415   1.926 -0.1990 -0.0299  0.4081
  453DMC     O3 2715   0.837   1.450   1.937 -0.1529  0.2090  0.1899
  453DMC     O4 2716   1.021   1.448   1.807 -0.4751 -0.0881  0.2657
  453DMC     C5 2717   0.778   1.384   2.046  0.0056 -0.4703 -0.1279
  453DMC     C6 2718   0.937   1.532   1.732  0.1731 -0.0496 -0.4176
  454DMC     O1 2719   2.526   2.188   1.088 -0.6866  0.3705  0.2036
  454DMC     C2 2720   2.570   2.208   1.198 -0.1989  0.0372  0.0760
  454DMC     O3 2721   2.572   2.331   1.252 -0.0250 -0.0196  0.1976
  454DMC     O4 2722   2.565   2.111   1.290  0.1819 -0.1608 -0.1124
  454DMC     C5 2723   2.555   2.443   1.169 -0.0530 -0.1444  0.0354
  454DMC     C6 2724   2.546   1.986   1.229 -0.0681 -0.2066  0.0579
  455DMC     O1 2725   1.040   0.418   0.008 -0.2136  0.1915 -0.1847
  455DMC     C2 2726   0.923   0.422   3.961 -0.3638  0.3000  0.5437
  455DMC     O3 2727   0.841   0.316   3.976  0.2224 -0.2144  0.1561
  455DMC     O4 2728   0.865   0.512   3.881  0.3119  0.3701  0.1278
  455DMC     C5 2729   0.917   0.218   0.064  0.9542  0.0046 -0.3525
  455DMC     C6 2730   0.967   0.589   3.823  0.2344  0.3176 -0.0788
  456DMC     O1 2731   0.577   1.585   1.048  0.5445 -0.4294 -0.2429
  456DMC     C2 2732   0.547   1.523   0.949 -0.5114  0.1028 -0.2717
  456DMC     O3 2733   0.574   1.555   0.822 -0.5289  0.0252 -0.2945
  456DMC     O4 2734   0.470   1.413   0.949  0.1047 -0.3317  0.1657
  456DMC     C5 2735   0.657   1.668   0.810 -0.3705 -0.0971 -0.3617
  456DMC     C6 2736   0.423   1.390   1.080 -0.0386  0.0684  0.1850
  457DMC     O1 2737   2.957   2.217   3.119 -0.0693  0.0472  0.6017
  457DMC     C2 2738   3.073   2.190   3.128 -0.1198 -0.3916 -0.0128
  457DMC     O3 2739   3.142   2.196   3.244 -0.7629 -0.0194  0.3551
  457DMC     O4 2740   3.151   2.151   3.026 -0.3795  0.0040 -0.3611
  457DMC     C5 2741   3.065   2.247   3.351 -0.5532  0.2169  0.3939
  457DMC     C6 2742   3.077   2.142   2.906 -0.7433  0.7601 -0.2005
  458DMC     O1 2743   0.814   3.236   2.570  0.0440 -0.4025  0.3712
  458DMC     C2 2744   0.731   3.212   2.487  0.0435  0.0882  0.2280
  458DMC     O3 2745   0.613   3.277   2.493  0.2922  0.5895 -0.2666
  458DMC     O4 2746   0.720   3.094   2.423  0.3251 -0.2296  0.7554
  458DMC     C5 2747   0.608   3.366   2.603 -0.2314  0.4223 -0.1557
  458DMC     C6 2748   0.814   2.999   2.467  0.4369 -0.6709 -0.4015
  459DMC     O1 2749   3.588   0.582   1.700  0.3103  0.3774 -0.1447
  459DMC     C2 2750   3.525   0.504   1.635  0.2167  0.4022 -0.0841
  459DMC     O3 2751   3.582   0.410   1.558 -0.3844 -0.0637  0.0279
  459DMC     O4 2752   3.391   0.496   1.624  0.2649 -0.0000 -0.4312
  459DMC     C5 2753   3.723   0.418   1.545 -0.3545 -0.3013  0.1921
  459DMC     C6 2754   3.322   0.595   1.697 -0.0673 -0.3566 -0.2555
  460DMC     O1 2755   1.054   0.849   3.038 -0.1514 -0.4877 -0.0529
  460DMC     C2 2756   1.168   0.864   3.005 -0.0016 -0.3109  0.5153
  460DMC     O3 2757   1.257   0.940   3.070  0.3222 -0.6461  0.4725
  460DMC     O4 2758   1.230   0.818   2.895 -0.5984  0.0646  0.0153
  460DMC     C5 2759   1.207   1.004   3.186  0.1240 -0.6262  0.3759
  460DMC     C6 2760   1.161   0.734   2.805  0.5481 -0.6865 -0.1860
  461DMC     O1 2761   0.728   1.831   2.014 -0.1213  0.2890  0.2205
  461DMC     C2 2762   0.775   1.939   2.038  0.1687  0.1699  0.1821
  461DMC     O3 2763   0.721   2.037   2.112  0.0950  0.3509 -0.1103
  461DMC     O4 2764   0.909   1.952   2.048  0.1766  0.3413 -0.1308
  461DMC     C5 2765   0.608   2.019   2.194  0.1357  0.0927 -0.1082
  461DMC     C6 2766   0.985   1.849   1.990 -0.3690 -0.0460 -0.1640
  462DMC     O1 2767   0.808   2.324   0.969 -0.4571 -0.3822 -0.4703
  462DMC     C2 2768   0.776   2.340   1.084  0.2447 -0.1769 -0.3020
  462DMC     O3 2769   0.767   2.248   1.182  0.0156 -0.1063 -0.2560
  462DMC     O4 2770   0.779   2.463   1.137 -0.0912 -0.1107 -0.4387
  462DMC     C5 2771   0.796   2.117   1.138 -0.6657 -0.2508 -0.2769
  462DMC     C6 2772   0.840   2.558   1.052  0.2624 -0.2981 -0.3973
  463DMC     O1 2773   1.841   2.096   2.060  0.4877  0.8893  0.2542
  463DMC     C2 2774   1.767   2.116   2.152  0.1531 -0.2345  0.2416
  463DMC     O3 2775   1.713   2.018   2.227 -0.1402 -0.2659 -0.0086
  463DMC     O4 2776   1.712   2.233   2.188  0.7804  0.1137  0.0745
  463DMC     C5 2777   1.750   1.887   2.192  0.6366 -0.1972  0.5265
  463DMC     C6 2778   1.773   2.347   2.131 -0.0903  0.3496 -0.4007
  464DMC     O1 2779   3.336   0.636   1.241 -0.0080 -0.1020 -0.4637
  464DMC     C2 2780   3.232   0.683   1.276 -0.1796 -0.7591 -0.0719
  464DMC     O3 2781   3.111   0.626   1.256 -0.6305  0.1056  0.1374
  464DMC     O4 2782   3.229   0.797   1.348  0.1559 -0.9504  0.2457
  464DMC     C5 2783   3.121   0.498   1.200 -0.0998  0.2772 -0.1735
  464DMC     C6 2784   3.359   0.844   1.372 -0.1058 -0.0019 -0.1705
  465DMC     O1 2785   1.006   2.379   1.568  0.1323  0.5263  0.3845
  465DMC     C2 2786   0.924   2.382   1.656 -0.3916 -0.5423 -0.0513
  465DMC     O3 2787   0.796   2.418   1.633 -0.1450  0.3560 -0.0833
  465DMC     O4 2788   0.948   2.324   1.774  0.0556  0.0356  0.1443
  465DMC     C5 2789   0.768   2.414   1.495 -0.0779  0.1463 -0.0916
  465DMC     C6 2790   1.078   2.270   1.774 -0.1176 -0.4100  1.0068
  466DMC     O1 2791   3.352   2.776   3.125  0.1635 -0.5682 -0.5019
  466DMC     C2 2792   3.317   2.693   3.204 -0.2699  0.2517  0.1934
  466DMC     O3 2793   3.340   2.711   3.335 -0.3957 -0.2333  0.2849
  466DMC     O4 2794   3.223   2.601   3.177 -0.2885  0.2763  0.1754
  466DMC     C5 2795   3.441   2.809   3.340  0.1149 -0.7538  0.2659
  466DMC     C6 2796   3.171   2.605   3.046 -0.1833 -0.2646  0.1173
  467DMC     O1 2797   1.298   0.138   1.535 -0.5471 -0.4510  0.1566
  467DMC     C2 2798   1.224   0.231   1.554  0.0132  0.1800 -0.6974
  467DMC     O3 2799   1.091   0.225   1.568  0.0991 -0.0307  0.0655
  467DMC     O4 2800   1.274   0.350   1.590 -0.1279  0.1128 -0.2745
  467DMC     C5 2801   1.045   0.101   1.521 -0.1651  0.0831  0.0225
  467DMC     C6 2802   1.413   0.335   1.609 -0.1170  0.1597 -0.3162
  468DMC     O1 2803   1.987   2.918   0.852 -0.3189  0.3365  0.0050
  468DMC     C2 2804   1.957   2.863   0.750  0.1259 -0.4971  0.3147
  468DMC     O3 2805   1.832   2.833   0.711  0.1332 -0.1764  0.0411
  468DMC     O4 2806   2.049   2.832   0.656 -0.1603  0.2432 -0.2157
  468DMC     C5 2807   1.726   2.850   0.803 -0.4397 -0.0916 -0.6291
  468DMC     C6 2808   2.179   2.864   0.699 -0.2105 -0.2267  0.2898
  469DMC     O1 2809   2.254   3.226   0.391 -0.3114  0.9501  0.4551
  469DMC     C2 2810   2.331   3.289   0.323 -0.1684  0.1347 -0.1595
  469DMC     O3 2811   2.299   3.385   0.234  0.3178 -0.2985 -0.8074
  469DMC     O4 2812   2.462   3.294   0.354 -0.2026 -0.4446  0.0807
  469DMC     C5 2813   2.159   3.402   0.232  0.3501  0.0805 -0.0861
  469DMC     C6 2814   2.461   3.200   0.459  0.3408  0.0267  0.5120
  470DMC     O1 2815   0.565   1.859   3.417  0.1496  0.1687 -0.2776
  470DMC     C2 2816   0.446   1.849   3.407  0.0063  0.5738  0.8958
  470DMC     O3 2817   0.374   1.938   3.338 -0.1607  0.0285  0.3620
  470DMC     O4 2818   0.372   1.796   3.506 -0.3293 -0.6383  0.0048
  470DMC     C5 2819   0.439   2.048   3.278 -0.3773 -0.5595 -0.9803
  470DMC     C6 2820   0.455   1.727   3.597 -0.5227 -1.0972 -0.1613
  471DMC     O1 2821   3.031   1.332   2.983  0.6703 -0.1505  0.4057
  471DMC     C2 2822   3.119   1.405   2.946  0.1411  0.1463 -0.2835
  471DMC     O3 2823   3.245   1.391   2.988 -0.1175 -0.0631  0.4388
  471DMC     O4 2824   3.094   1.513   2.868 -0.0682  0.3284  0.0311
  471DMC     C5 2825   3.276   1.264   3.042 -0.3031 -0.4918 -0.4417
  471DMC     C6 2826   2.959   1.522   2.832 -0.1280  0.1729  0.2117
  472DMC     O1 2827   1.689   0.713   1.280  0.2253 -0.2381  0.1697
  472DMC     C2 2828   1.719   0.620   1.210 -0.1433  0.0530 -0.3872
  472DMC     O3 2829   1.631   0.528   1.167 -0.1789 -0.1809  0.1771
  472DMC     O4 2830   1.844   0.587   1.174 -0.1713 -0.2236 -0.2327
  472DMC     C5 2831   1.501   0.542   1.218 -0.1887 -0.3573  0.1991
  472DMC     C6 2832   1.940   0.679   1.219 -0.6202  0.0723  0.1266
  473DMC     O1 2833   1.212   2.406   1.014 -0.0243 -0.3557  0.6837
  473DMC     C2 2834   1.303   2.374   1.084  0.2959 -0.3517  0.2739
  473DMC     O3 2835   1.283   2.305   1.198  0.4061 -0.2446  0.3579
  473DMC     O4 2836   1.431   2.358   1.046  0.3218  0.0562  0.1878
  473DMC     C5 2837   1.149   2.327   1.234  0.5096  1.4776 -0.1925
  473DMC     C6 2838   1.468   2.401   0.917 -0.7568  0.9401  0.1592
  474DMC     O1 2839   1.859   0.665   0.573 -0.0424  0.0008  0.2023
  474DMC     C2 2840   1.968   0.713   0.553 -0.2513  0.0907 -0.7518
  474DMC     O3 2841   1.994   0.832   0.497  0.1279  0.0525 -0.6594
  474DMC     O4 2842   2.082   0.642   0.562 -0.0720  0.5147  0.3823
  474DMC     C5 2843   1.879   0.896   0.445  0.1436  0.4707 -0.1872
  474DMC     C6 2844   2.042   0.507   0.565  0.2355  0.3966 -0.7450
  475DMC     O1 2845   2.768   3.472   2.689  0.0338 -0.7225  0.0426
  475DMC     C2 2846   2.803   3.400   2.778  0.4787 -0.7447 -0.1514
  475DMC     O3 2847   2.755   3.275   2.790 -0.1473 -0.4717  0.1834
  475DMC     O4 2848   2.888   3.431   2.878 -0.0432 -0.1966  0.1255
  475DMC     C5 2849   2.695   3.231   2.670  0.0141 -0.2348  0.0165
  475DMC     C6 2850   2.913   3.570   2.875 -0.5163 -0.1046  0.4193
  476DMC     O1 2851   1.241   2.231   2.085 -0.2382 -0.2442  0.1466
  476DMC     C2 2852   1.199   2.298   2.175 -0.1946 -0.1034  0.0629
  476DMC     O3 2853   1.274   2.340   2.279 -0.1328 -0.5421  0.1969
  476DMC     O4 2854   1.071   2.292   2.215 -0.1222  0.1445  0.3360
  476DMC     C5 2855   1.409   2.311   2.255 -0.1239 -0.1915 -0.1743
  476DMC     C6 2856   0.979   2.259   2.113  0.2901 -0.1983  0.0715
  477DMC     O1 2857   3.517   3.038   2.723 -0.4115  0.2901  0.6399
  477DMC     C2 2858   3.620   3.062   2.782 -0.0859  0.6177 -0.0530
  477DMC     O3 2859   3.680   3.182   2.784  0.2971  0.4232  0.1665
  477DMC     O4 2860   3.704   2.976   2.841 -0.1103  0.3975 -0.3342
  477DMC     C5 2861   3.614   3.277   2.703 -0.3790  0.2372  0.4919
  477DMC     C6 2862   3.648   2.848   2.859  0.0284  0.2939 -0.6263
  478DMC     O1 2863   0.241   2.680   0.528 -0.1771 -0.2549  0.3845
  478DMC     C2 2864   0.133   2.733   0.520  0.0769  0.1908 -0.1204
  478DMC     O3 2865   0.103   2.852   0.574 -0.1829  0.4830 -0.8871
  478DMC     O4 2866   0.027   2.678   0.458  0.0079  0.2548 -0.0582
  478DMC     C5 2867   0.197   2.884   0.675 -0.2335 -0.2070 -0.6107
  478DMC     C6 2868   0.052   2.543   0.426 -0.6781  0.1770 -0.2759
  479DMC     O1 2869   0.526   1.397   0.551  0.4661  0.2340 -0.0444
  479DMC     C2 2870   0.447   1.320   0.597  0.4105 -0.0918 -0.6821
  479DMC     O3 2871   0.489   1.223   0.681 -0.0009  0.3482  0.0397
  479DMC     O4 2872   0.314   1.336   0.604  0.4693  0.1379  0.0167
  479DMC     C5 2873   0.630   1.216   0.679 -0.0208 -0.0058 -0.1554
  479DMC     C6 2874   0.276   1.462   0.554  0.1205  0.2801  0.6357
  480DMC     O1 2875   3.461   1.962   1.179  0.1087 -0.2969 -0.1079
  480DMC     C2 2876   3.455   1.933   1.063 -0.1579 -0.3770 -0.0762
  480DMC     O3 2877   3.343   1.920   0.989  0.1266  0.1011 -0.6061
  480DMC     O4 2878   3.566   1.926   0.986  0.2115  0.1754  0.3992
  480DMC     C5 2879   3.220   1.923   1.058  0.4855  0.3225  0.0342
  480DMC     C6 2880   3.679   1.948   1.067  0.5984  0.0364 -0.1011
  481DMC     O1 2881   0.940   0.120   3.483  0.0622 -0.1545  0.0571
  481DMC     C2 2882   0.925   0.175   3.589 -0.2651  0.4704 -0.3065
  481DMC     O3 2883   1.030   0.222   3.659 -0.0425  0.2648 -0.4980
  481DMC     O4 2884   0.808   0.195   3.652 -0.2105 -0.1562 -0.0038
  481DMC     C5 2885   1.152   0.191   3.597  0.7023  0.2179  0.9447
  481DMC     C6 2886   0.713   0.137   3.566 -0.4666  0.5962 -0.2386
  482DMC     O1 2887   1.749   1.392   2.585 -0.8366 -0.2724 -0.7008
  482DMC     C2 2888   1.829   1.318   2.534 -0.0992 -0.0483  0.0936
  482DMC     O3 2889   1.885   1.337   2.413 -0.1184  0.0412  0.0984
  482DMC     O4 2890   1.890   1.219   2.601 -0.1957 -0.2191 -0.0670
  482DMC     C5 2891   1.840   1.455   2.352 -0.2901  0.0859  0.3130
  482DMC     C6 2892   1.906   1.228   2.741  0.1836 -0.4400 -0.0954
  483DMC     O1 2893   0.966   1.790   1.428 -0.5422  0.0969 -0.0239
  483DMC     C2 2894   1.057   1.864   1.454  0.0707 -0.3712 -0.7669
  483DMC     O3 2895   1.182   1.826   1.484  0.1493  0.2940 -0.2199
  483DMC     O4 2896   1.040   1.979   1.523 -0.1129 -0.7272 -0.2107
  483DMC     C5 2897   1.225   1.700   1.438 -0.1138 -0.1116  0.6348
  483DMC     C6 2898   0.903   2.009   1.532  0.0913  0.3847 -0.7308
  484DMC     O1 2899   0.262   2.141   0.216 -0.5266 -0.0069  0.0887
  484DMC     C2 2900   0.364   2.153   0.153 -0.4773  0.2882  0.2216
  484DMC     O3 2901   0.431   2.269   0.140 -0.3527  0.2063  0.1316
  484DMC     O4 2902   0.427   2.057   0.083 -0.4979  0.2123  0.3058
  484DMC     C5 2903   0.362   2.383   0.185 -0.6272  0.0044  0.2275
  484DMC     C6 2904   0.352   1.938   0.088  0.1027 -0.1679  0.2948
  485DMC     O1 2905   1.220   1.992   2.401  0.0944 -0.4427 -0.1961
  485DMC     C2 2906   1.167   1.937   2.308 -0.5517  0.8704 -0.6285
  485DMC     O3 2907   1.234   1.879   2.207 -0.3862 -0.2720  0.1221
  485DMC     O4 2908   1.046   1.879   2.306 -0.0943 -0.1130 -0.2057
  485DMC     C5 2909   1.373   1.891   2.224 -0.3190  0.1415 -0.6756
  485DMC     C6 2910   0.951   1.940   2.391  0.6970  0.2538  0.4311
  486DMC     O1 2911   0.603   0.315   0.463  0.1132  0.6300 -0.3993
  486DMC     C2 2912   0.695   0.311   0.387  0.0262  0.2515 -0.4864
  486DMC     O3 2913   0.785   0.411   0.375 -0.0183  0.3829  0.2518
  486DMC     O4 2914   0.736   0.205   0.314  0.3504  0.1374 -0.1401
  486DMC     C5 2915   0.742   0.522   0.450  0.0764  0.5903  0.0002
  486DMC     C6 2916   0.667   0.084   0.337 -0.2063  0.5192  0.2275
  487DMC     O1 2917   1.165   0.076   1.184 -0.3256  0.3870  0.7145
  487DMC     C2 2918   1.280   0.088   1.215 -0.1356  0.4956 -0.0213
  487DMC     O3 2919   1.372   0.163   1.153  0.1070 -0.1772 -0.4949
  487DMC     O4 2920   1.352   3.974   1.281  0.2347  0.8539  0.0807
  487DMC     C5 2921   1.327   0.245   1.047  0.0038  0.1889 -0.1707
  487DMC     C6 2922   1.282   3.861   1.327  0.1178  1.0593  0.4137
  488DMC     O1 2923   1.161   0.870   1.766 -0.2313 -0.0236  0.0467
  488DMC     C2 2924   1.220   0.861   1.661 -0.1812  0.2025  0.0552
  488DMC     O3 2925   1.294   0.750   1.644  0.5146  0.5946  0.4583
  488DMC     O4 2926   1.202   0.931   1.548  0.4632  0.7828  0.3049
  488DMC     C5 2927   1.281   0.667   1.757  0.0601 -0.0056 -0.0272
  488DMC     C6 2928   1.282   0.869   1.450 -0.1828 -0.5294  0.5800
  489DMC     O1 2929   1.377   3.259   2.980 -0.1101  0.6354 -0.0148
  489DMC     C2 2930   1.488   3.260   2.934  0.0194 -0.0494  0.2697
  489DMC     O3 2931   1.570   3.155   2.919 -0.3212 -0.3219  0.2971
  489DMC     O4 2932   1.542   3.371   2.881  0.0933 -0.1878  0.0530
  489DMC     C5 2933   1.509   3.027   2.921 -0.2954 -0.3327  0.3879
  489DMC     C6 2934   1.449   3.474   2.858  0.3304 -0.0743 -0.4020
  490DMC     O1 2935   2.640   1.206   3.189 -0.2733 -0.1815 -0.2706
  490DMC     C2 2936   2.525   1.242   3.193 -0.2400 -0.0174 -0.7375
  490DMC     O3 2937   2.466   1.323   3.104 -0.7759  0.2665 -0.1337
  490DMC     O4 2938   2.429   1.204   3.279 -0.1018 -0.3493 -0.7303
  490DMC     C5 2939   2.565   1.350   3.007 -0.2625 -0.4648  0.1794
  490DMC     C6 2940   2.465   1.103   3.371 -0.2557  0.3462  0.1009
  491DMC     O1 2941   3.404   3.435   2.223  0.1417  0.1089 -0.2611
  491DMC     C2 2942   3.495   3.438   2.301 -0.1888 -0.1835  0.1377
  491DMC     O3 2943   3.506   3.532   2.397 -0.3070 -0.1726  0.1400
  491DMC     O4 2944   3.585   3.339   2.312  0.1367  0.1252  0.2839
  491DMC     C5 2945   3.422   3.641   2.366 -0.2903 -0.0652  0.4702
  491DMC     C6 2946   3.546   3.227   2.236  0.1703 -0.3899  1.0058
  492DMC     O1 2947   3.577   3.795   1.314 -0.6660 -0.1294 -0.2448
  492DMC     C2 2948   3.552   3.692   1.257  0.4462 -0.3474 -0.3624
  492DMC     O3 2949   3.532   3.573   1.317 -0.2044 -0.2362 -0.3512
  492DMC     O4 2950   3.485   3.699   1.141 -0.9906 -0.2330  0.4433
  492DMC     C5 2951   3.523   3.568   1.458 -0.6004 -0.8285 -0.3963
  492DMC     C6 2952   3.468   3.828   1.085  0.0907 -0.3557 -0.2037
  493DMC     O1 2953   2.643   2.315   0.173 -0.1243 -0.3491 -0.0703
  493DMC     C2 2954   2.573   2.383   0.243  0.5734  0.2028  0.0957
  493DMC     O3 2955   2.541   2.355   0.371  0.4894  0.2072  0.0757
  493DMC     O4 2956   2.532   2.507   0.211  0.8713  0.3860  0.4085
  493DMC     C5 2957   2.595   2.233   0.416 -0.0326  0.1550  0.5662
  493DMC     C6 2958   2.599   2.528   0.089  0.2548 -0.1775 -0.0318
  494DMC     O1 2959   0.320   0.733   0.570  0.7448  0.3180  0.3268
  494DMC     C2 2960   0.424   0.674   0.555  0.2968 -0.2353 -0.7127
  494DMC     O3 2961   0.429   0.540   0.552 -0.3916 -0.3046  0.4937
  494DMC     O4 2962   0.539   0.731   0.596  0.2225 -0.3200 -0.3848
  494DMC     C5 2963   0.302   0.480   0.549 -0.0693 -0.9768 -0.3556
  494DMC     C6 2964   0.518   0.868   0.624  0.2162 -0.4008  0.0045
  495DMC     O1 2965   3.087   0.870   3.248 -0.1672 -0.2571  0.3915
  495DMC     C2 2966   3.023   0.772   3.275  0.2792 -0.5573  0.3638
  495DMC     O3 2967   2.951   0.699   3.187 -0.0272 -0.0634  0.1984
  495DMC     O4 2968   2.996   0.744   3.403  0.2936 -0.5903  0.3599
  495DMC     C5 2969   2.949   0.762   3.062  0.3926 -0.0881  0.1771
  495DMC     C6 2970   3.064   0.828   3.494 -0.0547  0.1357 -0.0397
  496DMC     O1 2971   3.229   3.241   3.147  0.6078  0.0140 -0.5901
  496DMC     C2 2972   3.223   3.173   3.246  0.2384  0.3479 -0.3785
  496DMC     O3 2973   3.166   3.051   3.244  0.5339  0.1997  0.0510
  496DMC     O4 2974   3.324   3.161   3.334  0.0986  0.1945 -0.2381
  496DMC     C5 2975   3.078   3.048   3.134  0.8438 -0.2560 -0.1834
  496DMC     C6 2976   3.417   3.264   3.310 -0.1837  0.4164 -0.3857
  497DMC     O1 2977   1.639   2.530   1.947  0.1739  0.5484 -0.1013
  497DMC     C2 2978   1.588   2.618   1.883 -0.3402  0.1865 -0.1885
  497DMC     O3 2979   1.482   2.595   1.803 -0.0528  0.0287 -0.5292
  497DMC     O4 2980   1.616   2.748   1.901  0.3626  0.0118 -0.0040
  497DMC     C5 2981   1.440   2.463   1.831  0.0043  0.1065 -0.0701
  497DMC     C6 2982   1.727   2.751   1.988  0.2452  0.5004  0.1292
  498DMC     O1 2983   2.783   2.462   1.525 -0.0767 -0.2103 -0.1916
  498DMC     C2 2984   2.866   2.478   1.440 -0.5747 -0.5099 -0.7412
  498DMC     O3 2985   2.845   2.555   1.332  0.3332  0.2577 -0.3770
  498DMC     O4 2986   2.965   2.389   1.415 -0.2526 -0.3939  0.0782
  498DMC     C5 2987   2.765   2.671   1.345  0.3436  0.2480 -0.2192
  498DMC     C6 2988   2.956   2.275   1.496 -0.0902 -0.3889  0.1018
  499DMC     O1 2989   2.673   0.755   0.523 -0.2230  0.1952  0.6688
  499DMC     C2 2990   2.736   0.768   0.624  0.2493  0.3737  0.3549
  499DMC     O3 2991   2.827   0.865   0.645  0.0905  0.6908 -0.3690
  499DMC     O4 2992   2.736   0.690   0.734  0.4421 -0.3017 -0.1143
  499DMC     C5 2993   2.865   0.937   0.530  0.2683  0.5080 -0.4258
  499DMC     C6 2994   2.815   0.737   0.841  0.4960  0.0669 -0.3126
  500DMC     O1 2995   3.717   2.597   0.065  0.4717 -0.1203 -0.3129
  500DMC     C2 2996   3.779   2.530   0.142  0.0508 -0.2706 -0.0976
  500DMC     O3 2997   3.914   2.532   0.149  0.0457 -0.2626  0.0063
  500DMC     O4 2998   3.730   2.457   0.244  0.0612 -0.0291  0.0814
  500DMC     C5 2999   3.956   2.637   0.065 -0.2048 -0.4612 -0.3713
  500DMC     C6 3000   3.590   2.452   0.233  0.0198  0.2455  0.4465
  501DMC     O1 3001   1.749   2.666   2.740  0.0612  0.6006  0.0691
  501DMC     C2 3002   1.759   2.700   2.855 -0.1960  0.0678  0.2483
  501DMC     O3 3003   1.675   2.682   2.959 -0.7849  0.8866 -0.0695
  501DMC     O4 3004   1.879   2.738   2.900 -0.0382 -0.1902  0.0520
  501DMC     C5 3005   1.553   2.633   2.907 -0.4981 -0.6480  0.6232
  501DMC     C6 3006   1.967   2.752   2.791 -0.1893  0.0828 -0.0385
  502DMC     O1 3007   3.685   3.311   0.165  0.4771 -0.2313 -0.1140
  502DMC     C2 3008   3.613   3.261   0.084 -0.0823 -0.1118  0.3050
  502DMC     O3 3009   3.504   3.195   0.125 -0.2527 -0.1826 -0.2443
  502DMC     O4 3010   3.629   3.256   3.928 -0.4212  0.3921  0.2414
  502DMC     C5 3011   3.516   3.215   0.264 -0.0109  0.2311 -0.3249
  502DMC     C6 3012   3.725   3.338   3.866  0.0652 -0.3337  0.0163
  503DMC     O1 3013   2.926   2.573   2.800 -0.1639  0.0532  0.4752
  503DMC     C2 3014   2.931   2.603   2.684 -0.4580 -0.1146  0.4167
  503DMC     O3 3015   2.905   2.520   2.581  0.5659 -0.2318  0.2410
  503DMC     O4 3016   2.945   2.724   2.628  0.0266 -0.2349  0.2647
  503DMC     C5 3017   2.855   2.398   2.633  0.0368 -0.0498  0.1598
  503DMC     C6 3018   2.969   2.835   2.712 -0.1219 -0.0905  0.1186
  504DMC     O1 3019   1.940   0.906   2.122 -0.0062  0.7694  0.8570
  504DMC     C2 3020   2.053   0.908   2.163  0.2252 -0.1580  0.2960
  504DMC     O3 3021   2.130   0.801   2.134  0.4855  0.0552  0.1887
  504DMC     O4 3022   2.089   0.969   2.277  0.2311  0.6996 -0.1516
  504DMC     C5 3023   2.068   0.733   2.027 -0.5741  0.4350  0.5481
  504DMC     C6 3024   1.974   1.036   2.323  0.1600  0.7216 -0.3612
  505DMC     O1 3025   1.837   0.940   0.805 -0.4004  0.2454 -0.4511
  505DMC     C2 3026   1.793   0.909   0.912 -0.4947  0.4329 -0.4349
  505DMC     O3 3027   1.701   0.813   0.936  0.0786  0.1570  0.7366
  505DMC     O4 3028   1.839   0.951   1.031  0.2760 -0.0762 -0.5437
  505DMC     C5 3029   1.641   0.746   0.827 -0.1771  0.0779  0.9259
  505DMC     C6 3030   1.931   1.052   0.995  0.3145 -0.1450 -0.6410
  506DMC     O1 3031   3.702   2.106   1.497  0.6013 -0.3883 -0.1946
  506DMC     C2 3032   3.805   2.139   1.444  0.4524  0.2730 -0.0791
  506DMC     O3 3033   3.800   2.204   1.326  0.4771 -0.0345 -0.2486
  506DMC     O4 3034   3.913   2.060   1.446  0.0295 -0.3042  0.0932
  506DMC     C5 3035   3.668   2.241   1.295  0.4921  0.7051  0.5264
  506DMC     C6 3036   3.896   1.950   1.532  0.6696  0.1818  0.8525
  507DMC     O1 3037   0.261   3.855   2.738  0.7284  0.1789  0.3570
  507DMC     C2 3038   0.204   3.959   2.755 -0.0439 -0.1394 -0.2224
  507DMC     O3 3039   0.253   0.089   2.816  0.1200 -0.3266 -0.0187
  507DMC     O4 3040   0.074   3.977   2.726 -0.2187 -0.2868  0.4462
  507DMC     C5 3041   0.371   0.065   2.890  0.0570 -0.2434  0.1103
  507DMC     C6 3042   0.024   3.869   2.651 -0.0853  0.0256 -0.1012
  508DMC     O1 3043   2.182   2.604   3.326  0.2465 -0.0301  0.5269
  508DMC     C2 3044   2.251   2.701   3.305 -0.3664  0.3225  0.1247
  508DMC     O3 3045   2.363   2.733   3.371 -0.1052 -0.3182 -0.0034
  508DMC     O4 3046   2.206   2.805   3.233  0.0011  0.1693 -0.3337
  508DMC     C5 3047   2.399   2.627   3.456 -0.0931 -0.1954  0.1435
  508DMC     C6 3048   2.122   2.775   3.124 -0.2058  0.3280 -0.2185
  509DMC     O1 3049   0.731   0.937   0.848 -0.0786 -0.2433  0.2839
  509DMC     C2 3050   0.707   0.888   0.955  0.1777 -0.1369  0.3899
  509DMC     O3 3051   0.633   0.954   1.046  0.3724  0.5240  0.0747
  509DMC     O4 3052   0.724   0.758   0.986  0.1946 -0.2000  0.1138
  509DMC     C5 3053   0.602   1.087   1.010  0.1644  0.5328  0.2811
  509DMC     C6 3054   0.770   0.682   0.876 -0.2864 -0.0641 -0.1815
  510DMC     O1 3055   1.365   1.530   3.574  0.2279  0.4831 -0.1497
  510DMC     C2 3056   1.339   1.605   3.485  0.2455 -0.2083 -0.7465
  510DMC     O3 3057   1.407   1.719   3.462  0.6351 -0.2936 -0.0528
  510DMC     O4 3058   1.245   1.576   3.393 -0.0734 -0.0349 -0.4764
  510DMC     C5 3059   1.530   1.729   3.530  0.3453  0.4652  0.3664
  510DMC     C6 3060   1.175   1.456   3.420 -0.6751  0.3116 -0.4863
  511DMC     O1 3061   0.663   1.748   2.391  0.3232 -0.1382 -0.1545
  511DMC     C2 3062   0.683   1.649   2.325 -0.1014 -0.3386  0.0187
  511DMC     O3 3063   0.602   1.596   2.232 -0.0127 -0.1294 -0.1768
  511DMC     O4 3064   0.781   1.563   2.358  0.0929 -0.0520  0.1970
  511DMC     C5 3065   0.486   1.672   2.208 -0.1006 -0.2867 -0.2491
  511DMC     C6 3066   0.836   1.590   2.485 -0.3094  0.1430  0.3300
  512DMC     O1 3067   2.163   3.558   3.854  0.6546 -0.4650  0.2763
  512DMC     C2 3068   2.165   3.521   3.740  0.7079  0.4674 -0.0415
  512DMC     O3 3069   2.109   3.403   3.706  0.0287  0.7774 -0.0215
  512DMC     O4 3070   2.203   3.590   3.631 -0.4985  0.3153 -0.5745
  512DMC     C5 3071   2.107   3.315   3.816  0.0925  0.5233 -0.2225
  512DMC     C6 3072   2.220   3.727   3.657  0.2094  0.0777  0.2393
  513DMC     O1 3073   3.680   3.643   2.714  0.6212  0.3977  0.5020
  513DMC     C2 3074   3.699   3.688   2.604  0.8348  0.0219  0.3798
  513DMC     O3 3075   3.801   3.647   2.527  0.0640 -0.1204 -0.5799
  513DMC     O4 3076   3.677   3.816   2.569  0.5980 -0.2010 -0.3043
  513DMC     C5 3077   3.834   3.518   2.575 -0.5140  0.0311  0.2405
  513DMC     C6 3078   3.627   3.881   2.684 -0.0555 -0.2576 -0.5494
  514DMC     O1 3079   1.305   0.410   2.477 -0.3387 -0.7536 -0.7718
  514DMC     C2 3080   1.371   0.500   2.434 -0.5486 -0.0811  0.2705
  514DMC     O3 3081   1.374   0.541   2.306 -0.5683  0.1036  0.3298
  514DMC     O4 3082   1.481   0.546   2.496 -0.3624 -0.1800  0.0154
  514DMC     C5 3083   1.268   0.508   2.219 -0.1872  0.0087 -0.1013
  514DMC     C6 3084   1.461   0.595   2.626  0.4386  0.3443 -0.0517
  515DMC     O1 3085   1.278   3.615   2.340  0.2047 -0.5836 -0.3827
  515DMC     C2 3086   1.334   3.517   2.381  0.3980 -0.4436 -0.3108
  515DMC     O3 3087   1.408   3.520   2.493  0.1260 -0.3944 -0.1303
  515DMC     O4 3088   1.319   3.396   2.325  0.1197 -0.4957 -0.1272
  515DMC     C5 3089   1.431   3.651   2.542 -0.7193 -0.1158 -0.4645
  515DMC     C6 3090   1.215   3.392   2.230 -0.1773 -0.3854  0.1903
  516DMC     O1 3091   1.475   0.434   3.094 -0.8339  0.6589 -0.2438
  516DMC     C2 3092   1.573   0.491   3.055 -0.1657 -0.1398  0.2370
  516DMC     O3 3093   1.682   0.432   3.004 -0.2955  0.0965 -0.3236
  516DMC     O4 3094   1.609   0.612   3.103  0.4720 -0.2938  0.1618
  516DMC     C5 3095   1.635   0.310   2.950 -0.0332 -0.1099 -0.0941
  516DMC     C6 3096   1.503   0.665   3.180  0.3745 -0.4059  0.1057
  517DMC     O1 3097   2.329   0.051   0.225  0.3662  0.0216 -0.2083
  517DMC     C2 3098   2.383   3.929   0.263 -0.0180 -0.1439 -0.0923
  517DMC     O3 3099   2.467   3.924   0.368 -0.0676 -0.1276 -0.0518
  517DMC     O4 3100   2.315   3.813   0.265 -0.2592  0.0033  0.4825
  517DMC     C5 3101   2.509   0.075   0.401 -0.9526  0.2244 -0.2838
  517DMC     C6 3102   2.225   3.806   0.157  0.5003  0.5221 -0.1944
   3.97982   3.97882   3.97781
