Electrolyte system
 3102
    1_EC     O1    1   2.050   2.701   3.040  0.5800 -0.0644  0.0754
    1_EC     C2    2   2.130   2.787   3.017  0.5297  0.1019  0.5096
    1_EC     O3    3   2.151   2.891   3.102 -0.2856  0.2639  0.5178
    1_EC     O4    4   2.254   2.765   2.965  0.0715 -0.5316 -0.3269
    1_EC     C5    5   2.221   2.986   3.022 -0.0893 -0.2156  0.1163
    1_EC     C6    6   2.300   2.896   2.929 -0.5559 -0.2763 -0.2277
    1_EC     O1    7   3.135   2.346   1.951 -0.3593 -0.1735  0.3084
    1_EC     C2    8   3.056   2.292   2.024 -0.1118 -0.1572  0.5868
    1_EC     O3    9   3.065   2.161   2.058 -0.1803 -0.3465 -0.1140
    1_EC     O4   10   2.924   2.322   2.016  0.0543  0.5333  0.3517
    1_EC     C5   11   2.960   2.145   2.154 -0.1576 -0.2051 -0.0658
    1_EC     C6   12   2.850   2.239   2.106  0.0992  0.1519  0.0375
    1_EC     O1   13   3.479   0.599   2.850  0.8954  0.0626  0.2018
    1_EC     C2   14   3.476   0.556   2.962 -0.3909 -0.0176  0.1524
    1_EC     O3   15   3.576   0.590   3.048 -0.1464  0.0513 -0.1562
    1_EC     O4   16   3.452   0.426   2.991 -1.0915 -0.1049 -0.7799
    1_EC     C5   17   3.551   0.529   3.175 -0.2440 -0.2908 -0.3389
    1_EC     C6   18   3.458   0.416   3.134 -0.0919 -0.2386 -0.8285
    1_EC     O1   19   0.467   1.601   2.730  0.0203  0.0691  0.0604
    1_EC     C2   20   0.374   1.674   2.713 -0.1202 -0.1931 -0.3098
    1_EC     O3   21   0.271   1.642   2.630 -0.5724 -0.0185  0.1753
    1_EC     O4   22   0.383   1.809   2.730  0.2589 -0.1854 -0.5644
    1_EC     C5   23   0.171   1.724   2.690 -0.0944  0.2823  0.5742
    1_EC     C6   24   0.247   1.852   2.719  0.2773  0.1189  0.3214
    1_EC     O1   25   3.245   2.788   0.202  0.0014 -0.1642  0.0118
    1_EC     C2   26   3.164   2.852   0.263  0.2347  0.2781 -0.1432
    1_EC     O3   27   3.198   2.978   0.303  0.2844  0.3233 -0.3256
    1_EC     O4   28   3.079   2.810   0.360 -0.0922 -0.0277 -0.5599
    1_EC     C5   29   3.078   3.040   0.350 -0.0648 -0.3430 -0.3286
    1_EC     C6   30   2.992   2.920   0.388 -0.2870 -0.2144 -0.4267
    1_EC     O1   31   1.904   1.296   1.868 -0.1019 -0.3002  0.2294
    1_EC     C2   32   1.944   1.373   1.785 -0.3991 -0.3382  0.0494
    1_EC     O3   33   2.053   1.354   1.705 -0.4280 -0.0020 -0.0695
    1_EC     O4   34   1.924   1.506   1.802  0.6057 -0.0922 -0.5888
    1_EC     C5   35   2.047   1.459   1.608 -0.6150 -0.4753 -0.5729
    1_EC     C6   36   1.966   1.566   1.679  0.1887  0.1692 -0.6075
    1_EC     O1   37   3.112   1.619   1.052 -0.3734  0.3440  0.1991
    1_EC     C2   38   3.108   1.672   1.160 -0.3423  0.2205  0.2612
    1_EC     O3   39   3.180   1.643   1.271  0.2965 -0.2174 -0.2613
    1_EC     O4   40   3.100   1.807   1.172  0.4892  0.2847  0.1475
    1_EC     C5   41   3.116   1.719   1.374  0.5031  0.0734 -0.3441
    1_EC     C6   42   3.050   1.836   1.303 -0.6001 -0.3907 -0.1095
    1_EC     O1   43   0.068   2.370   3.663  0.2772  0.2125 -0.1963
    1_EC     C2   44  -0.006   2.317   3.585 -0.0922  0.6156 -0.1239
    1_EC     O3   45   0.028   2.293   3.455  0.6748 -0.2665  0.2277
    1_EC     O4   46  -0.141   2.331   3.590 -0.1345  0.2626 -0.2169
    1_EC     C5   47  -0.077   2.213   3.400  0.2714  0.1496  0.3892
    1_EC     C6   48  -0.197   2.251   3.486 -0.1797  0.5260 -0.3952
    1_EC     O1   49   3.964   1.063   0.674  0.5962  0.3229 -0.5800
    1_EC     C2   50   3.977   1.000   0.573 -0.0991 -0.2166 -0.3409
    1_EC     O3   51   3.878   0.923   0.520 -0.3987 -0.3135  0.3426
    1_EC     O4   52   4.051   1.037   0.465 -0.0804 -0.3191 -0.3641
    1_EC     C5   53   3.935   0.844   0.414  0.0165  0.3636  0.0506
    1_EC     C6   54   4.069   0.913   0.397  0.5031 -0.5423  0.1930
    1_EC     O1   55   2.282   2.104   0.979  0.2932  0.1541  0.4662
    1_EC     C2   56   2.379   2.166   0.944  0.3496 -0.2612 -0.1301
    1_EC     O3   57   2.370   2.250   0.837  0.4228  0.1193  0.1587
    1_EC     O4   58   2.480   2.212   1.022  0.1619 -0.1307  0.0359
    1_EC     C5   59   2.508   2.258   0.798  0.3974  0.0610  0.0553
    1_EC     C6   60   2.584   2.246   0.929  0.3299 -0.6493  0.0342
    1_EC     O1   61   1.329   0.994   3.246  0.5293  0.0711  0.2586
    1_EC     C2   62   1.303   0.892   3.305 -0.0364  0.3351  0.4715
    1_EC     O3   63   1.290   0.873   3.439  0.0742 -0.4308  0.3794
    1_EC     O4   64   1.293   0.773   3.242 -0.4028  0.5854  0.0525
    1_EC     C5   65   1.235   0.742   3.451 -0.3821 -0.3155 -0.4097
    1_EC     C6   66   1.307   0.668   3.339  0.0855  0.1854 -0.4421
    1_EC     O1   67   1.654   2.656   2.833 -0.0391 -0.0360 -0.4374
    1_EC     C2   68   1.683   2.551   2.885 -0.1369  0.2403  0.1749
    1_EC     O3   69   1.797   2.480   2.863 -0.3801 -0.0843 -0.0491
    1_EC     O4   70   1.588   2.455   2.895 -0.2300  0.3002 -0.1228
    1_EC     C5   71   1.789   2.378   2.963 -0.1814 -0.6460 -0.5999
    1_EC     C6   72   1.640   2.361   2.989 -0.2127  0.3937 -0.0398
    1_EC     O1   73   2.291   1.792   3.279  0.2576 -0.1742  0.5464
    1_EC     C2   74   2.320   1.715   3.367  0.5366 -0.5608  0.1214
    1_EC     O3   75   2.425   1.629   3.369  0.4980 -0.6104  0.0115
    1_EC     O4   76   2.283   1.740   3.495  0.7925 -0.0136  0.0914
    1_EC     C5   77   2.370   1.528   3.454  0.0125 -0.2700  0.1074
    1_EC     C6   78   2.291   1.610   3.554 -0.0712 -0.1426 -0.0626
    1_EC     O1   79   2.984   3.757   2.834  0.4841 -0.8113  0.8172
    1_EC     C2   80   2.872   3.716   2.840  0.2084 -0.1641  0.1989
    1_EC     O3   81   2.779   3.731   2.742 -0.1509 -0.1290  0.5404
    1_EC     O4   82   2.795   3.695   2.950 -0.0172  0.3037  0.1341
    1_EC     C5   83   2.661   3.653   2.766 -0.0035 -0.4929  0.1010
    1_EC     C6   84   2.675   3.626   2.915 -0.1742  0.4897  0.3002
    1_EC     O1   85   1.712   1.616   2.345 -0.1486  0.1334  0.0040
    1_EC     C2   86   1.796   1.543   2.300 -0.1692  0.0305  0.1329
    1_EC     O3   87   1.814   1.502   2.171  0.3301 -0.2378  0.2853
    1_EC     O4   88   1.825   1.433   2.376  0.2221 -0.0610 -0.1459
    1_EC     C5   89   1.928   1.416   2.169  0.1048 -0.5295  0.0930
    1_EC     C6   90   1.940   1.375   2.315  0.3651 -0.1261  0.1842
    1_EC     O1   91   0.927   2.705   1.905 -0.1004 -0.6274 -0.4902
    1_EC     C2   92   0.853   2.779   1.845  0.0321  0.1531  0.2855
    1_EC     O3   93   0.791   2.880   1.911 -0.1255  0.1103  0.2042
    1_EC     O4   94   0.887   2.837   1.727 -0.0376  0.3679  0.3713
    1_EC     C5   95   0.687   2.901   1.815  0.2252  0.2416 -0.1514
    1_EC     C6   96   0.757   2.879   1.682  0.0656  0.0744 -0.2078
    1_EC     O1   97   1.510   1.653   1.275  0.0727 -0.0586  0.2460
    1_EC     C2   98   1.475   1.668   1.389 -0.6242  0.4545 -0.0251
    1_EC     O3   99   1.557   1.664   1.498 -0.0749 -0.4191 -0.4540
    1_EC     O4  100   1.364   1.608   1.441 -0.0728 -0.3429  0.2654
    1_EC     C5  101   1.486   1.702   1.616  0.9035  0.2044 -0.0593
    1_EC     C6  102   1.345   1.677   1.565  0.8429  0.3172  0.0504
    1_EC     O1  103   0.745   3.300   0.444 -0.5607 -0.0019  0.8706
    1_EC     C2  104   0.729   3.181   0.435  0.4923 -0.0826 -0.1303
    1_EC     O3  105   0.754   3.101   0.542  0.9261 -0.2029 -0.3199
    1_EC     O4  106   0.755   3.114   0.319 -0.3770  0.3244 -0.5738
    1_EC     C5  107   0.691   2.984   0.490  0.2135 -0.0980  0.2966
    1_EC     C6  108   0.732   2.975   0.344 -0.3229  0.4331  0.1109
    1_EC     O1  109   1.754   2.553   1.826  0.2266  0.1868  0.3783
    1_EC     C2  110   1.751   2.464   1.907 -0.6549 -0.0994  0.0333
    1_EC     O3  111   1.844   2.468   2.005  0.0392 -0.7078 -0.5920
    1_EC     O4  112   1.703   2.337   1.891  0.0126 -0.3305 -0.1388
    1_EC     C5  113   1.795   2.368   2.095 -0.3073  0.1020  0.1254
    1_EC     C6  114   1.737   2.260   2.006  1.0348 -0.2371 -0.3625
    1_EC     O1  115   0.122   0.138   0.489  0.1818  0.0590  0.3390
    1_EC     C2  116   0.131   0.068   0.393  0.1811  0.4864  0.0237
    1_EC     O3  117   0.021  -0.002   0.351  0.6306 -0.5909  0.5832
    1_EC     O4  118   0.235  -0.016   0.369  0.0546  0.3913 -0.2028
    1_EC     C5  119   0.062  -0.050   0.222 -0.0838  0.3533 -0.0090
    1_EC     C6  120   0.213  -0.048   0.231 -0.0734  0.2444 -0.1495
    1_EC     O1  121   2.775   2.430   0.084  0.4078 -0.7074 -0.5197
    1_EC     C2  122   2.889   2.420   0.122  0.1562  0.0314  0.4480
    1_EC     O3  123   2.971   2.524   0.154 -0.1324  0.6641 -0.8007
    1_EC     O4  124   2.971   2.336   0.054  0.1406  0.0670  0.3853
    1_EC     C5  125   3.083   2.457   0.212 -0.3943  0.5663 -0.4028
    1_EC     C6  126   3.078   2.319   0.148  0.0193  0.1049  0.5303
    1_EC     O1  127   2.114   2.311   1.847  0.7279  0.1842  0.1495
    1_EC     C2  128   2.103   2.406   1.775 -0.3227  0.2178  0.3396
    1_EC     O3  129   2.194   2.506   1.761 -0.1134 -0.0305 -0.1086
    1_EC     O4  130   2.001   2.425   1.687  0.2163 -0.0892 -0.3625
    1_EC     C5  131   2.178   2.559   1.629 -0.2385 -0.6329 -0.3392
    1_EC     C6  132   2.027   2.551   1.624 -0.3409  0.4627  0.4844
    1_EC     O1  133   2.689   3.366   1.863  0.2090 -0.2085 -0.3553
    1_EC     C2  134   2.572   3.342   1.867  0.2919 -0.5082  0.4475
    1_EC     O3  135   2.500   3.303   1.758 -0.2965 -0.0442  0.6624
    1_EC     O4  136   2.486   3.434   1.917  0.2449 -0.3727  0.1218
    1_EC     C5  137   2.371   3.274   1.812 -0.4026 -0.2643  0.2928
    1_EC     C6  138   2.361   3.367   1.931 -0.0631  0.1687 -0.0133
    1_EC     O1  139   0.738   3.636   2.250 -0.7105 -0.0240  0.5214
    1_EC     C2  140   0.712   3.745   2.293 -0.2839  0.2324  0.1386
    1_EC     O3  141   0.806   3.809   2.367  0.0011 -0.1254  0.0844
    1_EC     O4  142   0.628   3.843   2.249 -0.5357 -0.0807 -0.0836
    1_EC     C5  143   0.733   3.905   2.444  0.1781 -0.0212  0.1233
    1_EC     C6  144   0.606   3.926   2.364  0.3377  0.1596 -0.0839
    1_EC     O1  145   0.357   1.961   0.158 -0.3637 -0.2068  0.1548
    1_EC     C2  146   0.450   2.037   0.156 -0.2034 -0.4055  0.0516
    1_EC     O3  147   0.459   2.146   0.237 -0.1177 -0.0371 -0.4468
    1_EC     O4  148   0.563   2.028   0.081 -0.1220 -0.1941  0.1463
    1_EC     C5  149   0.593   2.196   0.232 -0.0807 -0.0676  0.1618
    1_EC     C6  150   0.627   2.155   0.090 -0.2516 -0.1282  0.1384
    1_EC     O1  151   2.969   3.412   0.140 -0.2953 -0.0235  0.8530
    1_EC     C2  152   2.943   3.529   0.133 -0.1321 -0.0239  0.1680
    1_EC     O3  153   3.043   3.616   0.102 -0.6790  0.2941 -0.7520
    1_EC     O4  154   2.873   3.596   0.229 -0.1612  0.0925  0.0659
    1_EC     C5  155   2.981   3.743   0.078 -0.0939  0.6961 -0.1554
    1_EC     C6  156   2.866   3.729   0.177  0.0512  0.0491 -0.0743
    1_EC     O1  157   3.255   2.261   2.779  0.1541  0.1192  0.1470
    1_EC     C2  158   3.159   2.246   2.849 -0.0597 -0.0744 -0.1844
    1_EC     O3  159   3.042   2.189   2.810 -0.0869 -0.5295  0.5248
    1_EC     O4  160   3.135   2.312   2.966  0.1021  0.5015 -0.4747
    1_EC     C5  161   2.955   2.168   2.921 -0.6144 -0.1134  0.2004
    1_EC     C6  162   3.001   2.284   3.008  0.4549 -0.4245  0.0664
    1_EC     O1  163   0.622   1.989   3.650 -0.0703 -0.2110 -0.1955
    1_EC     C2  164   0.659   2.102   3.631  0.3921 -0.3809 -0.3264
    1_EC     O3  165   0.782   2.136   3.584  0.3967  0.1363  0.0542
    1_EC     O4  166   0.629   2.195   3.725  0.9063 -0.5309 -0.0090
    1_EC     C5  167   0.767   2.277   3.565 -0.5052 -0.0588 -0.7990
    1_EC     C6  168   0.675   2.321   3.678  0.1114 -0.3019 -0.1952
    1_EC     O1  169   1.615   0.982   0.640  0.1977 -0.0733 -0.7151
    1_EC     C2  170   1.509   0.952   0.687  0.3481 -0.1366 -0.4147
    1_EC     O3  171   1.489   0.932   0.820 -0.2548  0.2210 -0.4469
    1_EC     O4  172   1.437   0.852   0.632 -0.3679  0.0489  0.1682
    1_EC     C5  173   1.349   0.906   0.830 -0.0806 -0.5169  0.2083
    1_EC     C6  174   1.310   0.841   0.698 -0.5326  0.3442 -0.0927
    1_EC     O1  175   3.033   1.452   3.259  0.1799 -0.1102 -0.5048
    1_EC     C2  176   3.039   1.571   3.241 -0.2590 -0.0243 -0.0932
    1_EC     O3  177   3.074   1.659   3.339  0.1703 -0.1033 -0.1709
    1_EC     O4  178   3.091   1.634   3.132 -0.4669  0.0213 -0.1665
    1_EC     C5  179   3.024   1.782   3.285 -0.7385 -0.2624  0.2816
    1_EC     C6  180   3.032   1.764   3.134 -0.4180  0.0382  0.2591
    1_EC     O1  181   3.702   3.957   1.816  0.6496 -0.0264  0.3142
    1_EC     C2  182   3.623   4.025   1.757  0.2385 -0.7760 -0.0129
    1_EC     O3  183   3.565   3.989   1.639  0.8631  0.1743 -0.6186
    1_EC     O4  184   3.590   4.154   1.784  0.3219 -0.6968 -0.2883
    1_EC     C5  185   3.491   4.100   1.587 -0.1438 -0.2018 -0.0220
    1_EC     C6  186   3.471   4.186   1.712  0.5900  0.3657 -0.2824
    1_EC     O1  187   3.338   3.431   3.092  0.8358 -0.4133  0.2393
    1_EC     C2  188   3.287   3.408   3.198 -0.2923  0.5852 -0.0562
    1_EC     O3  189   3.240   3.508   3.278  0.1125  0.0887  0.8237
    1_EC     O4  190   3.204   3.304   3.222  0.4204 -0.0382 -0.2596
    1_EC     C5  191   3.205   3.448   3.403  0.6083 -0.0880  0.8791
    1_EC     C6  192   3.181   3.304   3.363  0.0123  0.3327 -0.3253
    1_EC     O1  193   2.600   2.150   1.484 -0.7813  0.1648  0.5225
    1_EC     C2  194   2.698   2.173   1.550 -0.1807 -0.3744 -0.1598
    1_EC     O3  195   2.700   2.175   1.686  0.3499  0.6685 -0.1694
    1_EC     O4  196   2.787   2.273   1.522 -0.1284 -0.4578 -0.2950
    1_EC     C5  197   2.839   2.170   1.719  0.3490  0.9717 -0.1176
    1_EC     C6  198   2.897   2.262   1.612  0.1727  0.6237 -0.5173
    1_EC     O1  199   0.232   3.589   0.293 -0.3261  0.7230 -0.1802
    1_EC     C2  200   0.345   3.604   0.331 -0.3776  0.3687  0.1233
    1_EC     O3  201   0.418   3.717   0.311  0.4494 -0.2175 -0.1989
    1_EC     O4  202   0.413   3.519   0.412 -0.2587  0.0527 -0.3091
    1_EC     C5  203   0.526   3.712   0.405  0.2293  0.1339  0.0759
    1_EC     C6  204   0.550   3.562   0.413 -0.2602  0.0524  0.0455
    1_EC     O1  205   1.652   2.037   2.820 -0.4494 -0.1890 -0.4011
    1_EC     C2  206   1.706   1.979   2.729 -0.8409 -0.5014 -0.4372
    1_EC     O3  207   1.703   1.845   2.710  0.3830 -0.6024  0.0480
    1_EC     O4  208   1.709   2.037   2.605  0.0249  0.1443 -0.1263
    1_EC     C5  209   1.791   1.815   2.602 -0.3653 -0.1070 -0.7111
    1_EC     C6  210   1.796   1.950   2.532  0.3482  0.2887  0.0869
    1_EC     O1  211   2.629   1.227   1.158  0.1736  0.3124 -0.2405
    1_EC     C2  212   2.721   1.151   1.161  0.0859  0.2190  0.1717
    1_EC     O3  213   2.777   1.108   1.044 -0.1793  0.0366  0.1109
    1_EC     O4  214   2.766   1.076   1.265 -0.2787 -0.1357  0.0782
    1_EC     C5  215   2.895   1.041   1.089 -0.2298  0.0559  0.2718
    1_EC     C6  216   2.863   0.980   1.225 -0.0083  0.0350  0.3150
    1_EC     O1  217   2.507   0.161   1.716  0.2619  0.2961  0.1953
    1_EC     C2  218   2.613   0.106   1.702  0.1253  0.1384 -0.2077
    1_EC     O3  219   2.694   0.112   1.593 -0.0366  0.1447 -0.3273
    1_EC     O4  220   2.704   0.120   1.802  0.2673 -0.2473 -0.2811
    1_EC     C5  221   2.809   0.032   1.622  0.2086  0.5502 -0.1796
    1_EC     C6  222   2.806   0.024   1.774  0.2646 -0.2687 -0.2189
    1_EC     O1  223   2.380   0.217   2.687  0.6796  0.0699  0.0622
    1_EC     C2  224   2.382   0.307   2.767 -0.6526 -0.3171  0.5474
    1_EC     O3  225   2.459   0.419   2.758 -0.6641 -0.3463  0.0829
    1_EC     O4  226   2.375   0.276   2.900 -0.3172 -0.3962  0.5475
    1_EC     C5  227   2.398   0.508   2.852  0.1951  0.1093  0.2140
    1_EC     C6  228   2.352   0.406   2.955  0.3831 -0.0801  0.1121
    1_EC     O1  229   0.277   2.406   0.211 -0.0386  0.1412 -0.0796
    1_EC     C2  230   0.306   2.392   0.096  0.7810 -0.3581  0.1722
    1_EC     O3  231   0.301   2.271   0.034 -0.3888 -0.1428 -0.1955
    1_EC     O4  232   0.327   2.489   0.003  0.0872 -0.3156  0.0488
    1_EC     C5  233   0.321   2.285  -0.106  0.0503 -0.2244 -0.1427
    1_EC     C6  234   0.378   2.426  -0.115 -0.3312 -0.0760 -0.2634
    1_EC     O1  235   0.964   2.370   1.759 -0.0932 -0.2806  0.4028
    1_EC     C2  236   0.848   2.401   1.751  0.0371  0.0498 -0.2876
    1_EC     O3  237   0.763   2.393   1.856  0.1581  1.0362 -0.1078
    1_EC     O4  238   0.807   2.512   1.683  0.2375  0.0126 -0.4729
    1_EC     C5  239   0.635   2.412   1.794  0.0377  0.5861  0.0012
    1_EC     C6  240   0.667   2.485   1.664  0.1913  0.0892 -0.2451
    1_EC     O1  241   1.403   3.717   2.845  0.4432  0.1460  0.6065
    1_EC     C2  242   1.343   3.790   2.772 -0.0845 -0.9668 -0.1047
    1_EC     O3  243   1.270   3.896   2.816 -0.2701 -1.1217 -0.0407
    1_EC     O4  244   1.344   3.786   2.636 -0.2895  0.5094 -0.1642
    1_EC     C5  245   1.194   3.945   2.705 -0.2788 -0.1799  0.3701
    1_EC     C6  246   1.281   3.905   2.586 -0.0829  0.7674  0.1852
    1_EC     O1  247   3.668   0.922   2.088  0.0451 -0.1114 -0.1447
    1_EC     C2  248   3.567   0.864   2.117  0.0420 -0.0685 -0.0701
    1_EC     O3  249   3.490   0.916   2.216  0.2382  0.2037 -0.0583
    1_EC     O4  250   3.577   0.730   2.135 -0.0912 -0.0394  0.2178
    1_EC     C5  251   3.378   0.826   2.211  0.0513  0.4301  0.0181
    1_EC     C6  252   3.440   0.696   2.162 -0.2343  0.3195 -0.0532
    1_EC     O1  253   0.620   1.879   1.903  0.1560 -0.7699  0.3430
    1_EC     C2  254   0.674   1.974   1.952 -0.6413  0.2388 -0.6976
    1_EC     O3  255   0.797   2.014   1.909 -0.3265  0.0164 -0.0069
    1_EC     O4  256   0.604   2.089   1.974 -0.4407  0.2692 -0.2189
    1_EC     C5  257   0.823   2.119   2.002 -0.4082 -0.1675  0.2260
    1_EC     C6  258   0.690   2.180   2.044 -0.3870 -0.1655  0.2922
    1_EC     O1  259   3.108   3.399   2.380 -0.0252 -0.2061  0.0797
    1_EC     C2  260   3.097   3.508   2.430  0.1658 -0.2803  0.2879
    1_EC     O3  261   2.980   3.574   2.450  0.3056 -0.0759  0.4302
    1_EC     O4  262   3.180   3.556   2.527  0.2110  0.5756 -0.1673
    1_EC     C5  263   3.013   3.712   2.466  0.0515  0.0956 -0.4619
    1_EC     C6  264   3.152   3.696   2.526 -0.2808  0.4857  0.4296
    1_EC     O1  265   2.212   0.037   0.611  0.0190  0.2182  0.1984
    1_EC     C2  266   2.278  -0.027   0.688 -0.1016  0.5236  0.5563
    1_EC     O3  267   2.240  -0.040   0.818 -0.0765  0.6886  0.5802
    1_EC     O4  268   2.414  -0.021   0.688 -0.0778  0.0054  0.1952
    1_EC     C5  269   2.336  -0.121   0.886 -0.2319  0.1165  0.1256
    1_EC     C6  270   2.454  -0.112   0.791 -0.0462  0.2139  0.3659
    1_EC     O1  271   2.446   3.307   2.734  0.0077 -0.1745 -0.1937
    1_EC     C2  272   2.508   3.207   2.711  0.0244 -0.2435  0.1412
    1_EC     O3  273   2.546   3.165   2.587 -0.5001  0.0417 -0.1234
    1_EC     O4  274   2.478   3.086   2.767 -0.5875 -0.1707 -0.0127
    1_EC     C5  275   2.649   3.068   2.610 -0.0141  0.6368  0.2426
    1_EC     C6  276   2.597   3.010   2.740 -0.3720  0.1912 -0.0950
    1_EC     O1  277   3.522   0.309   0.010 -0.5127 -0.2553  0.2139
    1_EC     C2  278   3.553   0.194  -0.000  0.2644 -0.0509  0.2234
    1_EC     O3  279   3.561   0.110   0.106 -0.0135 -0.2089  0.1203
    1_EC     O4  280   3.520   0.120  -0.109 -0.5498  0.1789  0.3065
    1_EC     C5  281   3.623  -0.008   0.054  0.1061 -0.0995  0.0156
    1_EC     C6  282   3.601   0.002  -0.096 -0.4092  0.2535  0.1130
    1_EC     O1  283   1.312   1.525   2.822  0.4573  0.4150 -0.0840
    1_EC     C2  284   1.385   1.497   2.731  0.1690  0.4275 -0.3223
    1_EC     O3  285   1.350   1.436   2.615  0.1460  0.2350 -0.2140
    1_EC     O4  286   1.511   1.450   2.756 -0.0159  0.1809  0.1595
    1_EC     C5  287   1.463   1.433   2.528  0.3099 -0.1988  0.0100
    1_EC     C6  288   1.572   1.416   2.632  0.1723  0.2582  0.2312
    1_EC     O1  289   2.215   0.710   3.727 -0.1378  0.2681 -0.5458
    1_EC     C2  290   2.273   0.778   3.808 -0.5196 -0.1384  0.0838
    1_EC     O3  291   2.231   0.905   3.832 -0.0917  0.0448 -0.1304
    1_EC     O4  292   2.325   0.737   3.926 -0.1170 -0.0354 -0.0567
    1_EC     C5  293   2.330   0.966   3.915 -0.3305  0.1175  0.1029
    1_EC     C6  294   2.396   0.848   3.984 -0.0834  0.0461 -0.2538
    1_EC     O1  295   1.695   0.792   3.025  0.1548  0.3539 -0.6821
    1_EC     C2  296   1.717   0.680   3.059  0.0344  0.3305 -0.6782
    1_EC     O3  297   1.836   0.625   3.021  0.0417 -0.0895 -0.0702
    1_EC     O4  298   1.627   0.578   3.059  0.1563  0.2174 -0.1753
    1_EC     C5  299   1.846   0.502   3.094  0.5420  0.0558  0.1106
    1_EC     C6  300   1.700   0.479   3.132  0.3500  0.0300 -0.6214
    1_EC     O1  301   1.517   0.605   1.517 -0.6955 -0.1931  0.0467
    1_EC     C2  302   1.484   0.606   1.402 -0.3088 -0.1264 -0.0649
    1_EC     O3  303   1.482   0.493   1.326  1.1838 -0.1083 -0.1594
    1_EC     O4  304   1.407   0.702   1.344 -0.1374 -0.0553 -0.1747
    1_EC     C5  305   1.471   0.542   1.192  0.1799 -0.0471 -0.0625
    1_EC     C6  306   1.385   0.666   1.207 -0.0322 -0.1809 -0.1589
    1_EC     O1  307   0.535   1.594   2.342 -0.4606 -0.6590  0.3103
    1_EC     C2  308   0.632   1.529   2.372 -0.1373 -0.3989 -0.1429
    1_EC     O3  309   0.762   1.568   2.371 -0.3521  0.3695  0.6884
    1_EC     O4  310   0.628   1.419   2.452  0.2576 -0.0211  0.4049
    1_EC     C5  311   0.846   1.452   2.374 -0.1946  0.4717  0.2549
    1_EC     C6  312   0.755   1.355   2.447  0.1756 -0.1475 -0.1085
    1_EC     O1  313   3.316   1.039   0.896  0.1410  0.7853 -0.5137
    1_EC     C2  314   3.276   1.136   0.953 -0.1116  0.2400  0.2635
    1_EC     O3  315   3.355   1.206   1.039  0.2108  0.0505  0.1232
    1_EC     O4  316   3.152   1.190   0.946 -0.1913 -0.0233 -0.5070
    1_EC     C5  317   3.266   1.284   1.119 -0.1442  0.1581 -0.3740
    1_EC     C6  318   3.161   1.316   1.013 -0.4003 -0.1582 -0.2189
    1_EC     O1  319   2.012   2.366   0.905  0.6489 -0.5969 -0.3031
    1_EC     C2  320   1.993   2.280   0.987  0.0206 -0.0305  0.1629
    1_EC     O3  321   2.046   2.290   1.112 -0.2220  0.4749  0.2262
    1_EC     O4  322   1.871   2.222   1.000  0.1009 -0.1737  0.2878
    1_EC     C5  323   2.015   2.165   1.173  0.2955  0.6532  0.8655
    1_EC     C6  324   1.887   2.123   1.101  0.9269 -0.1483  0.1849
    1_EC     O1  325   2.774   2.157   3.223 -0.9259  0.2160  0.3183
    1_EC     C2  326   2.749   2.157   3.341 -0.3939  0.3459  0.4371
    1_EC     O3  327   2.663   2.070   3.400 -0.0614 -0.2761  0.0183
    1_EC     O4  328   2.844   2.178   3.435  0.1018 -0.3943  0.1157
    1_EC     C5  329   2.642   2.127   3.529  0.1051 -0.1144 -0.0259
    1_EC     C6  330   2.777   2.188   3.561  0.1699 -0.3506  0.1482
    1_EC     O1  331   1.864   0.218   1.112 -0.3057 -0.2202  0.1626
    1_EC     C2  332   1.847   0.249   1.227 -0.3585 -0.3482  0.1894
    1_EC     O3  333   1.734   0.311   1.270 -0.0915  0.0580  0.3125
    1_EC     O4  334   1.927   0.224   1.334  0.2691 -0.7124 -0.3565
    1_EC     C5  335   1.751   0.334   1.410 -0.3261 -0.5878  0.4514
    1_EC     C6  336   1.842   0.218   1.448  0.5302 -0.1224 -0.1273
    1_EC     O1  337   2.982   1.420   1.337 -0.0431  0.3691  0.2447
    1_EC     C2  338   3.053   1.371   1.421  0.2404 -0.0743 -0.2432
    1_EC     O3  339   3.135   1.441   1.504  0.0389 -0.1116 -0.0084
    1_EC     O4  340   3.105   1.246   1.416 -0.6259 -0.4442 -0.2516
    1_EC     C5  341   3.148   1.352   1.615 -0.0058 -0.3485 -0.1899
    1_EC     C6  342   3.128   1.215   1.553  0.0146 -0.2918 -0.3223
    1_EC     O1  343   0.767   3.302   1.600  0.0155 -0.4252 -0.3957
    1_EC     C2  344   0.835   3.394   1.563  0.2301 -0.3055  0.2840
    1_EC     O3  345   0.781   3.508   1.510 -0.3288 -0.6983 -0.0031
    1_EC     O4  346   0.952   3.435   1.619  0.2685  0.1092 -0.0922
    1_EC     C5  347   0.893   3.564   1.441 -0.5837  0.1713  0.2746
    1_EC     C6  348   1.014   3.515   1.518 -0.1693 -0.0858 -0.5218
    1_EC     O1  349   3.705   3.122   0.580  0.1126  0.1462 -0.4144
    1_EC     C2  350   3.783   3.209   0.552 -0.1565  0.4589 -0.1859
    1_EC     O3  351   3.886   3.177   0.470  0.0733 -0.0286  0.2849
    1_EC     O4  352   3.839   3.292   0.644  0.4998  0.1206 -0.2774
    1_EC     C5  353   3.949   3.303   0.444 -0.5147  0.1377 -0.3799
    1_EC     C6  354   3.918   3.384   0.568  0.4159  0.2457 -0.2130
    1_EC     O1  355   0.983   3.149   3.227 -0.0548  0.2102  0.8174
    1_EC     C2  356   1.090   3.159   3.280  0.4982  0.1828 -0.2801
    1_EC     O3  357   1.169   3.267   3.255 -0.0949  0.8984  0.8771
    1_EC     O4  358   1.169   3.052   3.309 -0.1209 -0.2532 -0.1979
    1_EC     C5  359   1.273   3.259   3.353  0.5429 -0.0465  0.1335
    1_EC     C6  360   1.269   3.111   3.391 -0.5227 -0.0298  0.1359
    1_EC     O1  361   3.266   1.719   2.652 -0.1536 -0.1922  0.4632
    1_EC     C2  362   3.172   1.789   2.626  0.2518  0.3932  0.5809
    1_EC     O3  363   3.152   1.862   2.513  0.0335  0.3814  0.6120
    1_EC     O4  364   3.087   1.833   2.723 -0.1047  0.0048  0.4464
    1_EC     C5  365   3.044   1.954   2.533 -0.0567  0.3414  0.3044
    1_EC     C6  366   2.977   1.892   2.654  0.0438 -0.0341  0.1716
    1_EC     O1  367   3.143   0.068   0.829  0.4929  0.4721 -0.4856
    1_EC     C2  368   3.102   0.136   0.740  0.4093  0.3751 -0.5215
    1_EC     O3  369   3.134   0.268   0.735  0.3705  0.3728 -0.9287
    1_EC     O4  370   3.005   0.109   0.648  0.2721 -0.2321 -0.1973
    1_EC     C5  371   3.031   0.340   0.668  0.0370  0.4720 -0.3211
    1_EC     C6  372   2.994   0.228   0.571  0.7539 -0.0545  0.0024
    1_EC     O1  373   1.369   2.296   2.188 -0.7875 -0.5957 -0.2364
    1_EC     C2  374   1.299   2.360   2.114 -0.4281  0.0372 -0.0349
    1_EC     O3  375   1.338   2.464   2.036 -0.0672  0.2541  0.4296
    1_EC     O4  376   1.176   2.404   2.152 -0.3613  0.4445 -0.2836
    1_EC     C5  377   1.232   2.477   1.941  0.6066  0.3409 -0.3253
    1_EC     C6  378   1.113   2.443   2.030  0.3211  0.8776 -0.5017
    1_EC     O1  379   0.682   3.506   1.172  0.3312  0.0091 -0.0747
    1_EC     C2  380   0.609   3.418   1.209  0.6063 -0.2040 -0.0329
    1_EC     O3  381   0.613   3.360   1.332 -0.3842 -0.0945  0.0605
    1_EC     O4  382   0.572   3.321   1.121  0.7390  0.0231 -0.3406
    1_EC     C5  383   0.504   3.267   1.331 -0.5865  0.1397  0.0441
    1_EC     C6  384   0.523   3.208   1.193  0.6640  0.3417  0.1163
    1_EC     O1  385   2.472   3.807   3.170 -0.0402 -0.2487  0.1629
    1_EC     C2  386   2.419   3.851   3.072  0.5799  0.5983  0.2042
    1_EC     O3  387   2.330   3.954   3.072  0.0841  0.1747 -0.3238
    1_EC     O4  388   2.500   3.875   2.965  0.5434  0.5643  0.1689
    1_EC     C5  389   2.284   3.952   2.937  0.0305  0.2213 -0.3062
    1_EC     C6  390   2.410   3.914   2.861  0.4824  0.6029  0.2357
    1_EC     O1  391   3.124   1.990   0.191  0.2726  0.0915 -0.0629
    1_EC     C2  392   3.171   1.956   0.296 -0.0222 -1.0349 -0.2871
    1_EC     O3  393   3.111   1.985   0.415  0.7910  0.1884 -0.1543
    1_EC     O4  394   3.299   1.988   0.331 -0.1959 -0.4541 -0.1705
    1_EC     C5  395   3.186   1.913   0.513 -0.0662  0.7199  0.9176
    1_EC     C6  396   3.324   1.910   0.449 -0.3800  0.1256  0.2533
    1_EC     O1  397   1.999   0.203   2.878  0.2594 -0.2104 -0.4622
    1_EC     C2  398   1.985   0.300   2.808 -0.3309 -0.2153 -0.3559
    1_EC     O3  399   2.082   0.381   2.758 -0.0426 -0.2885  0.0803
    1_EC     O4  400   1.865   0.339   2.757 -0.1156  0.1962 -0.5476
    1_EC     C5  401   2.009   0.503   2.740  0.0689 -0.1512  0.5293
    1_EC     C6  402   1.896   0.440   2.660  0.4469  0.2372 -0.3305
    1_EC     O1  403   2.152   0.043   1.685  0.3338  0.0129 -0.3448
    1_EC     C2  404   2.171   0.160   1.707  0.9248 -0.1879  0.2610
    1_EC     O3  405   2.157   0.254   1.610  0.0993 -0.1119  0.4404
    1_EC     O4  406   2.127   0.220   1.821  0.1064  0.1798 -0.2329
    1_EC     C5  407   2.202   0.380   1.662 -0.4559  0.1782  0.2268
    1_EC     C6  408   2.180   0.353   1.810 -0.2536  0.3696  0.2927
    1_EC     O1  409   1.625   0.015   1.633  0.7471 -0.4095  0.0165
    1_EC     C2  410   1.535   0.090   1.607  0.9343 -0.1612  0.0786
    1_EC     O3  411   1.404   0.053   1.607  0.6973  0.6549 -0.0677
    1_EC     O4  412   1.532   0.221   1.642  0.4915 -0.2021  0.2060
    1_EC     C5  413   1.338   0.155   1.532 -0.3953  0.1047  0.1287
    1_EC     C6  414   1.425   0.275   1.564  0.3670 -0.4628  0.1965
    1_EC     O1  415   3.584   3.412   3.479 -0.5369 -0.1654  0.0396
    1_EC     C2  416   3.614   3.524   3.451  0.1601 -0.3836 -0.0944
    1_EC     O3  417   3.553   3.593   3.351  0.6144  0.1185 -0.0322
    1_EC     O4  418   3.656   3.617   3.541 -0.4233 -0.3874  0.1833
    1_EC     C5  419   3.623   3.717   3.334  0.5280  0.1530 -0.1410
    1_EC     C6  420   3.706   3.725   3.461 -0.0355 -0.4951  0.2773
    1_EC     O1  421   2.031   3.631   0.701 -0.8160 -0.4635  0.0964
    1_EC     C2  422   2.040   3.540   0.778  0.3903 -0.4692 -0.0347
    1_EC     O3  423   1.979   3.421   0.750  0.1764 -0.1695 -0.8828
    1_EC     O4  424   2.015   3.564   0.909  0.1476  0.0631 -0.1797
    1_EC     C5  425   2.007   3.331   0.858 -0.3541  0.4397 -0.2217
    1_EC     C6  426   2.049   3.435   0.960 -0.4904  0.0506  0.2340
    1_EC     O1  427   2.934   3.089   3.478 -0.0220  0.1106  0.2477
    1_EC     C2  428   2.870   3.166   3.544 -0.4311  0.3330 -0.4029
    1_EC     O3  429   2.890   3.301   3.547 -0.0787  0.2781 -0.2621
    1_EC     O4  430   2.791   3.133   3.650 -0.0611  0.3122 -0.1322
    1_EC     C5  431   2.783   3.359   3.620 -0.1017  0.2867 -0.3023
    1_EC     C6  432   2.697   3.240   3.660 -0.0600  0.3133 -0.1335
    1_EC     O1  433   3.803   1.811   2.684  0.4843 -0.0415  0.0873
    1_EC     C2  434   3.830   1.862   2.578  0.2547  0.1944  0.1398
    1_EC     O3  435   3.956   1.854   2.527  0.2240  0.1351  0.0730
    1_EC     O4  436   3.786   1.984   2.538  0.3112  0.0634 -0.3308
    1_EC     C5  437   3.947   1.910   2.395  0.3976  0.4370  0.1875
    1_EC     C6  438   3.822   1.996   2.401  0.0039 -0.0872 -0.4259
    1_EC     O1  439   2.145   1.677   2.225  0.3088  0.6905  0.2997
    1_EC     C2  440   2.224   1.713   2.142  0.1277  0.5850  0.0801
    1_EC     O3  441   2.358   1.714   2.167  0.0863  0.2624  0.3336
    1_EC     O4  442   2.200   1.815   2.057 -0.6699  0.0793 -0.3105
    1_EC     C5  443   2.414   1.728   2.036 -0.1211 -0.0514  0.2114
    1_EC     C6  444   2.295   1.781   1.956 -0.2245 -0.2622  0.2246
    1_EC     O1  445   0.399   2.848   0.562  0.0734  0.3035  0.3548
    1_EC     C2  446   0.282   2.873   0.556  0.0202 -0.1136 -0.5091
    1_EC     O3  447   0.223   2.907   0.438 -0.2563  0.2698 -0.2630
    1_EC     O4  448   0.223   2.962   0.640  0.5633  0.0532 -0.2996
    1_EC     C5  449   0.083   2.918   0.464 -0.2264  0.6104 -0.2491
    1_EC     C6  450   0.084   2.939   0.614  0.5127  0.2481 -0.2004
    1_EC     O1  451   3.843   3.014   1.878 -0.0942  0.0774 -0.7812
    1_EC     C2  452   3.842   3.089   1.972  0.2875 -0.3746 -0.4166
    1_EC     O3  453   3.766   3.200   1.991  0.1945 -0.4887 -0.1124
    1_EC     O4  454   3.956   3.123   2.037 -0.1834  0.0365  0.2016
    1_EC     C5  455   3.772   3.232   2.130  0.3020  0.2848 -0.2896
    1_EC     C6  456   3.918   3.196   2.154  0.2081  0.2280  0.2102
    1_EC     O1  457   1.300   3.732   0.762 -0.2067  0.1281 -0.0921
    1_EC     C2  458   1.251   3.842   0.758 -0.4916  0.0005 -0.0636
    1_EC     O3  459   1.119   3.867   0.784 -0.4948  0.2224 -0.2899
    1_EC     O4  460   1.316   3.949   0.810 -0.0689 -0.1292 -0.3245
    1_EC     C5  461   1.106   4.001   0.736  0.2089  0.3361 -0.1782
    1_EC     C6  462   1.237   4.064   0.782  0.3148  0.1592 -0.2347
    1_EC     O1  463   3.512   0.574   1.868 -0.3073 -0.3231  0.0235
    1_EC     C2  464   3.610   0.517   1.906  0.1435  0.4594  0.0335
    1_EC     O3  465   3.615   0.398   1.972 -0.2310  0.3912 -0.0592
    1_EC     O4  466   3.729   0.520   1.839  0.1125  0.5119 -0.0188
    1_EC     C5  467   3.749   0.382   2.021 -0.5320 -0.2011  0.5712
    1_EC     C6  468   3.823   0.488   1.941 -0.5330 -0.4074  0.2942
    1_EC     O1  469   3.876   3.134   1.374 -0.4330 -0.6598 -0.0471
    1_EC     C2  470   3.948   3.227   1.351 -0.5732 -0.4345  0.4148
    1_EC     O3  471   3.902   3.336   1.283  0.1132 -0.4515 -0.0919
    1_EC     O4  472   4.057   3.262   1.424 -0.2448  0.0757 -0.3112
    1_EC     C5  473   3.992   3.444   1.307 -0.0897 -0.2337 -0.3139
    1_EC     C6  474   4.117   3.375   1.359 -0.0079  0.0749 -0.0966
    1_EC     O1  475   2.546   0.546   0.207 -0.0925 -0.1586 -0.3797
    1_EC     C2  476   2.495   0.616   0.290  0.2813 -0.4487  0.1021
    1_EC     O3  477   2.505   0.752   0.283  0.3037 -0.4568 -0.0205
    1_EC     O4  478   2.399   0.576   0.377 -0.1431  0.1425 -0.0872
    1_EC     C5  479   2.428   0.802   0.392  0.5436 -0.1576  0.0107
    1_EC     C6  480   2.336   0.690   0.437  0.1338  0.2041  0.0843
    1_EC     O1  481   3.358   1.119   3.363 -0.4941 -0.1873  0.2834
    1_EC     C2  482   3.336   1.235   3.386  0.1416  0.0692 -0.3600
    1_EC     O3  483   3.432   1.324   3.349 -0.0758  0.1675 -0.6906
    1_EC     O4  484   3.296   1.275   3.509  0.1681  0.2544 -0.4111
    1_EC     C5  485   3.378   1.453   3.379  0.5674  0.2685  0.0517
    1_EC     C6  486   3.283   1.416   3.492  0.5005  0.3407  0.0187
    1_EC     O1  487   2.240   0.148   2.084 -0.3561  1.1288  0.0279
    1_EC     C2  488   2.355   0.181   2.085  0.0448 -0.1700 -0.4099
    1_EC     O3  489   2.449   0.121   2.007  0.6434  0.0533  0.1280
    1_EC     O4  490   2.393   0.309   2.110 -0.4979 -0.0347 -0.2682
    1_EC     C5  491   2.572   0.161   2.067  0.9536 -0.2510 -0.3023
    1_EC     C6  492   2.534   0.293   2.131 -0.4994 -0.5114 -0.6116
    1_EC     O1  493   0.939   1.574   3.606 -0.0410  0.0995  0.4746
    1_EC     C2  494   0.936   1.689   3.571 -0.4810  0.0559  0.3619
    1_EC     O3  495   0.867   1.732   3.462  0.3528  0.6546  0.0627
    1_EC     O4  496   1.038   1.775   3.596 -0.7012  0.3375  0.2963
    1_EC     C5  497   0.898   1.871   3.446  0.1744  0.6776 -0.0857
    1_EC     C6  498   0.986   1.904   3.565 -0.3828  0.4874  0.3857
    1_EC     O1  499   1.946   1.820   0.944 -0.2446  0.0902  0.0416
    1_EC     C2  500   2.057   1.820   0.989 -0.3036 -0.4602  0.2013
    1_EC     O3  501   2.154   1.736   0.942 -0.1288  0.0931 -0.4600
    1_EC     O4  502   2.074   1.839   1.122 -0.4295 -0.4384  0.2141
    1_EC     C5  503   2.273   1.780   1.008 -0.0857 -0.4740 -0.1527
    1_EC     C6  504   2.217   1.845   1.133 -0.3882 -0.4493 -0.3007
    1_EC     O1  505   0.956   2.718   1.439 -0.2452 -0.6975  0.1569
    1_EC     C2  506   1.060   2.660   1.451 -0.1242 -0.4610  0.2617
    1_EC     O3  507   1.074   2.579   1.560 -0.3324 -0.0953  0.5643
    1_EC     O4  508   1.136   2.612   1.349 -0.2173 -0.1453  0.0458
    1_EC     C5  509   1.203   2.518   1.553 -0.3297 -0.0712  0.3992
    1_EC     C6  510   1.212   2.503   1.402 -0.0776  0.1196  0.3942
    1_EC     O1  511   3.005   0.091   3.572  0.3399  0.7111  0.1777
    1_EC     C2  512   3.125   0.104   3.566  0.3600  0.2577 -0.6126
    1_EC     O3  513   3.184   0.217   3.614 -0.3764  0.1999  0.4779
    1_EC     O4  514   3.210   0.002   3.595 -0.1403 -0.1532 -0.5648
    1_EC     C5  515   3.319   0.205   3.568 -0.4052  0.5242  0.3089
    1_EC     C6  516   3.335   0.055   3.548  0.1724  0.4960  0.9590
    1_EC     O1  517   1.393   0.241   0.058 -0.2968 -0.1797 -0.4969
    1_EC     C2  518   1.302   0.287   0.121  0.0412 -0.1631 -0.0160
    1_EC     O3  519   1.171   0.267   0.090  0.1113 -0.0681 -0.3847
    1_EC     O4  520   1.310   0.287   0.257 -0.4454 -0.0598  0.0152
    1_EC     C5  521   1.100   0.349   0.183  0.7574 -0.0749  0.1234
    1_EC     C6  522   1.186   0.334   0.308 -0.1349 -0.0314  0.7537
    1_EC     O1  523   0.487   0.362   3.676  0.5097 -0.4513 -0.0984
    1_EC     C2  524   0.412   0.342   3.584  0.1524 -0.6521  0.2345
    1_EC     O3  525   0.276   0.334   3.594  0.1046 -0.2727 -0.0886
    1_EC     O4  526   0.450   0.256   3.486 -0.2430 -0.8887  0.2877
    1_EC     C5  527   0.227   0.283   3.470  0.1154 -0.2894 -0.0861
    1_EC     C6  528   0.351   0.268   3.383  0.2244  0.2885 -0.0342
    1_EC     O1  529   3.536   0.420   3.478 -0.4458 -0.2345  0.3076
    1_EC     C2  530   3.625   0.426   3.558 -0.0607 -0.4119 -0.1008
    1_EC     O3  531   3.603   0.452   3.690  0.0189  0.5549 -0.2715
    1_EC     O4  532   3.752   0.460   3.524 -0.2109 -0.3411 -0.5922
    1_EC     C5  533   3.731   0.479   3.747 -0.1025  0.1947  0.1722
    1_EC     C6  534   3.835   0.452   3.640 -0.7703 -0.8505 -0.2213
    1_EC     O1  535   3.305   1.947   2.971 -0.0966  0.3326  0.3230
    1_EC     C2  536   3.386   1.861   2.994 -0.0778  0.0935 -0.6255
    1_EC     O3  537   3.372   1.763   3.087  0.0341  0.3457 -0.3414
    1_EC     O4  538   3.516   1.863   2.955  0.3538 -0.2973  0.7404
    1_EC     C5  539   3.457   1.656   3.043 -0.5612 -0.0870 -0.4490
    1_EC     C6  540   3.562   1.728   2.959  0.0256 -0.4384 -0.0187
    1_EC     O1  541   3.391   3.864   1.188  0.1427 -0.2126 -0.5155
    1_EC     C2  542   3.417   3.855   1.071  0.0696  0.0698 -0.5533
    1_EC     O3  543   3.484   3.960   1.015 -0.0137  0.6310  0.3736
    1_EC     O4  544   3.470   3.746   1.010  0.5422 -0.0594  0.0722
    1_EC     C5  545   3.512   3.931   0.878 -0.2950  0.2142  0.4019
    1_EC     C6  546   3.469   3.785   0.872 -0.3873  0.2504  0.1611
    1_EC     O1  547   0.797   2.057   0.706 -0.5069  0.0566  0.1392
    1_EC     C2  548   0.817   2.153   0.777  0.0134  0.0054  0.0670
    1_EC     O3  549   0.918   2.237   0.744  0.0539 -0.0440  0.0657
    1_EC     O4  550   0.715   2.223   0.834  0.2695  0.3891  0.0549
    1_EC     C5  551   0.921   2.322   0.859  0.2015 -0.2573  0.2213
    1_EC     C6  552   0.782   2.317   0.919  0.1801  0.3049  0.2198
    1_EC     O1  553   3.209   3.010   1.867  0.3193 -0.1933 -0.4701
    1_EC     C2  554   3.117   3.054   1.803  0.2818  0.5816  0.0947
    1_EC     O3  555   3.088   3.186   1.797 -0.0746  0.4834 -0.3655
    1_EC     O4  556   3.082   3.004   1.682  0.0603  0.2052  0.3101
    1_EC     C5  557   2.962   3.190   1.728 -0.4744 -0.0244  0.3298
    1_EC     C6  558   2.949   3.054   1.661  0.0660  0.0906 -0.0155
    1_EC     O1  559   2.686   2.382   2.909 -0.1808 -0.3872 -0.2561
    1_EC     C2  560   2.584   2.439   2.884 -0.0661 -0.3129 -0.5629
    1_EC     O3  561   2.456   2.398   2.908 -0.0031 -0.0338  0.3100
    1_EC     O4  562   2.574   2.575   2.875  0.3930 -0.2110  0.3636
    1_EC     C5  563   2.374   2.471   2.816 -0.0329 -0.4054  0.0413
    1_EC     C6  564   2.457   2.596   2.796  0.5589 -0.8076 -0.0518
    1_EC     O1  565   1.246   1.581   0.567  0.1523  0.1284 -0.4796
    1_EC     C2  566   1.350   1.521   0.570  0.1886  0.2087 -0.1642
    1_EC     O3  567   1.451   1.535   0.479  0.5319 -0.4549  0.1070
    1_EC     O4  568   1.363   1.396   0.623 -0.2709  0.4063  0.4256
    1_EC     C5  569   1.557   1.444   0.506  0.7006 -0.4483 -0.5159
    1_EC     C6  570   1.504   1.377   0.632 -0.2297  0.1688 -0.5711
    1_EC     O1  571   2.935   2.438   3.691  0.0556  0.2752 -0.0383
    1_EC     C2  572   2.982   2.538   3.738 -0.0200  0.2584  0.0726
    1_EC     O3  573   3.083   2.604   3.675 -0.1022 -0.0131 -0.3530
    1_EC     O4  574   2.906   2.645   3.774  0.2375  0.4370  0.0867
    1_EC     C5  575   3.129   2.701   3.770  0.0087 -0.4655  0.0565
    1_EC     C6  576   2.996   2.738   3.835  0.2863  0.3330  0.1749
    1_EC     O1  577   3.488   0.088   2.453  0.3097 -0.1579 -0.5284
    1_EC     C2  578   3.478   0.102   2.334 -0.1074 -0.0218 -0.4777
    1_EC     O3  579   3.453   0.216   2.263 -0.7372 -0.0276 -0.2777
    1_EC     O4  580   3.577   0.049   2.259 -0.2340 -0.5161 -0.2999
    1_EC     C5  581   3.454   0.188   2.123  0.6515  0.2066 -0.3299
    1_EC     C6  582   3.547   0.068   2.120  0.3919  0.0055 -0.3665
    1_EC     O1  583   3.849   1.447   2.372  0.2731 -0.2196  0.1399
    1_EC     C2  584   3.966   1.468   2.355  0.2582 -0.3425 -0.1039
    1_EC     O3  585   4.070   1.428   2.433 -0.0421  0.1042  0.5319
    1_EC     O4  586   4.004   1.597   2.332 -0.1265 -0.2317 -0.1260
    1_EC     C5  587   4.191   1.477   2.373 -0.2722  0.4199  0.3239
    1_EC     C6  588   4.145   1.607   2.309 -0.0527  0.6742  0.6842
    1_EC     O1  589   3.478   0.466   1.267  0.3650 -0.4378 -0.4960
    1_EC     C2  590   3.405   0.413   1.187  0.0906 -0.0531 -0.5008
    1_EC     O3  591   3.312   0.320   1.222  0.1215  0.0810 -0.0492
    1_EC     O4  592   3.459   0.375   1.068  0.2836 -0.0923 -0.4014
    1_EC     C5  593   3.255   0.279   1.097 -0.4845 -0.2673  0.3387
    1_EC     C6  594   3.361   0.304   0.991 -0.3439 -0.2149  0.4915
    1_EC     O1  595   2.682   3.654   0.806  0.4194 -0.5444  0.0858
    1_EC     C2  596   2.771   3.694   0.736  0.5147 -0.4427  0.2626
    1_EC     O3  597   2.889   3.738   0.787  0.0449  0.6612  0.4169
    1_EC     O4  598   2.777   3.677   0.601 -0.6474 -0.2009  0.1678
    1_EC     C5  599   2.962   3.776   0.671  0.1445 -0.4986  0.0831
    1_EC     C6  600   2.854   3.792   0.565  0.1722 -0.7862  0.0108
    1_EC     O1  601   2.163   2.519   2.125  0.6366 -0.1603  0.5017
    1_EC     C2  602   2.093   2.615   2.113  0.8350 -0.0389  0.3216
    1_EC     O3  603   2.059   2.702   2.212 -0.3339 -0.1288  0.0181
    1_EC     O4  604   2.094   2.693   2.001  0.1032 -0.0536  0.3013
    1_EC     C5  605   1.964   2.799   2.168 -0.1939 -0.0110 -0.0245
    1_EC     C6  606   1.997   2.797   2.020  0.1403  0.0268  0.0489
    1_EC     O1  607   0.446   3.576   2.962 -0.2826 -0.1613 -0.0605
    1_EC     C2  608   0.403   3.467   2.936 -0.0679 -0.3368  0.3057
    1_EC     O3  609   0.482   3.356   2.944 -0.0076 -0.2755  0.5446
    1_EC     O4  610   0.288   3.425   2.996 -0.4652 -0.0324 -0.2319
    1_EC     C5  611   0.399   3.252   2.892  0.2231 -0.1766 -0.0297
    1_EC     C6  612   0.262   3.296   2.941  0.2223 -0.3165  0.0951
    1_EC     O1  613   3.183   0.536   3.450 -0.3119 -0.2904 -0.2929
    1_EC     C2  614   3.204   0.653   3.461 -0.1943 -0.3795  0.4695
    1_EC     O3  615   3.290   0.697   3.557 -0.2992  0.2044  0.2985
    1_EC     O4  616   3.098   0.739   3.463  0.0454 -0.0495 -0.5023
    1_EC     C5  617   3.287   0.840   3.545 -0.2916  0.1582 -0.2731
    1_EC     C6  618   3.142   0.867   3.508 -0.4354 -0.0947  0.0988
    1_EC     O1  619   1.265   2.732   2.761 -0.2007  0.2470  0.0842
    1_EC     C2  620   1.242   2.709   2.876 -0.0945 -0.1370  0.0337
    1_EC     O3  621   1.139   2.771   2.941  0.0082  0.2979 -0.2133
    1_EC     O4  622   1.261   2.586   2.931  0.0249 -0.0338  0.2273
    1_EC     C5  623   1.165   2.743   3.079 -0.3626 -0.1747 -0.2352
    1_EC     C6  624   1.190   2.595   3.054 -0.0265 -0.1930  0.2098
    1_EC     O1  625   2.466   1.115   0.189 -0.5743 -0.1061  0.0331
    1_EC     C2  626   2.453   1.207   0.264 -0.4355  0.1301 -0.2329
    1_EC     O3  627   2.497   1.334   0.242  0.7333 -0.2185  0.0112
    1_EC     O4  628   2.357   1.211   0.360 -0.0145 -0.5556  0.2221
    1_EC     C5  629   2.509   1.388   0.374 -0.4265  0.4680 -0.1493
    1_EC     C6  630   2.394   1.319   0.446 -0.0426 -0.2212 -0.1871
    1_EC     O1  631   2.774   1.595   0.542 -0.1789  0.2960 -0.1510
    1_EC     C2  632   2.773   1.681   0.458 -0.2738  0.1888 -0.2601
    1_EC     O3  633   2.869   1.702   0.365  0.2747 -0.4517  0.1518
    1_EC     O4  634   2.732   1.808   0.485  0.2433  0.3346 -0.1561
    1_EC     C5  635   2.816   1.799   0.274  0.4313  0.0426  0.5847
    1_EC     C6  636   2.719   1.877   0.361 -0.1329  0.2088 -0.1870
    1_EC     O1  637   2.780   0.091   2.595 -0.2003 -0.1548 -0.1602
    1_EC     C2  638   2.740   0.121   2.704 -0.1125 -0.3106 -0.0855
    1_EC     O3  639   2.793   0.055   2.812  0.2787  0.3837  0.1554
    1_EC     O4  640   2.715   0.248   2.744  0.0605 -0.3437  0.1357
    1_EC     C5  641   2.726   0.111   2.925 -0.4915 -0.5141  0.1600
    1_EC     C6  642   2.687   0.252   2.884  0.5117 -0.2154  0.2217
    1_EC     O1  643   0.244   2.524   0.617  0.0297  0.2057 -0.3220
    1_EC     C2  644   0.168   2.508   0.526 -0.3199  0.3637 -0.0603
    1_EC     O3  645   0.127   2.615   0.452 -0.0720  0.2805 -0.3220
    1_EC     O4  646   0.060   2.426   0.531  0.1706 -0.2928 -0.1246
    1_EC     C5  647   0.023   2.567   0.366  0.2553 -0.3688 -0.3624
    1_EC     C6  648   0.005   2.420   0.399 -0.1984 -0.2309  0.0239
    1_EC     O1  649   3.451   1.200   1.710 -0.5421  0.1405 -0.3474
    1_EC     C2  650   3.498   1.178   1.602  0.1099  0.2560 -0.0913
    1_EC     O3  651   3.613   1.238   1.561  0.0674  0.2051 -0.2886
    1_EC     O4  652   3.419   1.184   1.492 -0.0420  0.0017  0.0030
    1_EC     C5  653   3.642   1.172   1.438  0.5294  0.4015 -0.2879
    1_EC     C6  654   3.503   1.159   1.379  0.3228 -0.2799  0.3336
    1_EC     O1  655   0.087   1.761   2.050 -0.0328 -0.0873  0.2714
    1_EC     C2  656   0.156   1.838   1.989  0.5149 -0.3523  0.5462
    1_EC     O3  657   0.226   1.943   2.041  0.2325 -0.2308  0.6850
    1_EC     O4  658   0.239   1.790   1.893  0.2906  0.1036  0.1183
    1_EC     C5  659   0.286   2.010   1.930 -0.6220 -0.6297 -0.0329
    1_EC     C6  660   0.291   1.903   1.822 -0.4769 -0.0142 -0.6472
    1_EC     O1  661   1.844   3.422   2.907 -0.2905 -0.4579 -1.0737
    1_EC     C2  662   1.729   3.424   2.940  0.0931  0.7760  0.3130
    1_EC     O3  663   1.636   3.448   2.845 -0.2734  0.3498  0.5553
    1_EC     O4  664   1.677   3.487   3.049 -0.2419  0.3886  0.3803
    1_EC     C5  665   1.507   3.429   2.905 -0.1304 -0.0161  0.7437
    1_EC     C6  666   1.536   3.460   3.051 -0.1353 -0.1546  0.7744
    1_EC     O1  667   3.271   1.068   0.277  0.1356 -0.0690  0.1781
    1_EC     C2  668   3.216   1.024   0.374 -0.4695 -0.1651 -0.2030
    1_EC     O3  669   3.287   0.945   0.459 -0.0042  0.0968 -0.3446
    1_EC     O4  670   3.161   1.115   0.458 -0.3644 -0.1539 -0.1457
    1_EC     C5  671   3.195   0.919   0.565  0.3145  0.3692  0.0052
    1_EC     C6  672   3.114   1.047   0.575  0.2746  0.3146  0.3868
    1_EC     O1  673   2.145   1.093   2.360 -0.0076 -0.4683 -0.9095
    1_EC     C2  674   2.201   0.989   2.377 -0.0213 -0.3387  0.0084
    1_EC     O3  675   2.266   0.966   2.494  0.2210 -0.0734 -0.0729
    1_EC     O4  676   2.170   0.869   2.319 -0.1967 -0.0408 -0.5262
    1_EC     C5  677   2.249   0.827   2.526  0.1284 -0.0350  0.0428
    1_EC     C6  678   2.259   0.777   2.383  0.3110  0.6643 -0.1968
    1_EC     O1  679   1.373   3.720   2.294 -0.4768  0.1990 -0.1332
    1_EC     C2  680   1.392   3.608   2.255  0.1163  0.1776  0.2049
    1_EC     O3  681   1.288   3.521   2.253  0.0930  0.2081  0.0910
    1_EC     O4  682   1.508   3.539   2.274 -0.0301 -0.0977  0.1043
    1_EC     C5  683   1.346   3.392   2.229  0.2445  0.2547  0.2127
    1_EC     C6  684   1.493   3.418   2.199  0.2136  0.0247 -0.1423
    1_EC     O1  685   1.343   1.063   2.571 -0.0535  0.3597  0.3453
    1_EC     C2  686   1.441   1.023   2.629 -0.0461 -0.0950  0.0247
    1_EC     O3  687   1.545   1.099   2.671  0.1306 -0.3915  0.1298
    1_EC     O4  688   1.483   0.894   2.641  0.1528 -0.0416 -0.1006
    1_EC     C5  689   1.613   1.025   2.772  0.0777 -0.3574  0.1908
    1_EC     C6  690   1.609   0.887   2.707  0.1727 -0.1978 -0.1543
    1_EC     O1  691   0.006   0.856   2.644  0.5135 -0.2628  0.5651
    1_EC     C2  692  -0.092   0.790   2.630  0.6686 -0.2999 -0.3998
    1_EC     O3  693  -0.206   0.812   2.702  0.6919 -0.8878 -0.1743
    1_EC     O4  694  -0.101   0.654   2.618 -0.1757 -0.2600 -0.3285
    1_EC     C5  695  -0.309   0.737   2.638  0.2262 -0.0989 -0.3532
    1_EC     C6  696  -0.235   0.613   2.592 -0.1893 -0.5613  0.2205
    1_EC     O1  697   2.653   0.797   1.046  0.1235 -0.3252 -0.0646
    1_EC     C2  698   2.642   0.780   0.928  0.4006 -0.4145 -0.0791
    1_EC     O3  699   2.671   0.655   0.881  0.0426 -0.5213 -0.0210
    1_EC     O4  700   2.693   0.873   0.843  0.2991 -0.1546  0.1430
    1_EC     C5  701   2.671   0.666   0.738  0.4158 -0.4209 -0.0132
    1_EC     C6  702   2.700   0.813   0.713 -0.5873 -0.1973  0.1104
    1_EC     O1  703   1.210   0.276   1.115 -0.1559  0.2275 -0.2016
    1_EC     C2  704   1.173   0.172   1.162 -0.1481  0.4698  0.3484
    1_EC     O3  705   1.116   0.165   1.286 -0.1849  0.4286  0.3289
    1_EC     O4  706   1.095   0.089   1.089  0.1213  0.2661  0.2897
    1_EC     C5  707   1.084   0.028   1.309 -0.2706  0.3843 -0.0438
    1_EC     C6  708   1.071  -0.028   1.168  0.2858  0.0548  0.0293
    1_EC     O1  709   2.859   1.609   1.554  0.2982  0.3319  0.7006
    1_EC     C2  710   2.780   1.680   1.610 -0.3924  0.0925  0.0474
    1_EC     O3  711   2.813   1.727   1.734  0.0125 -0.3649  0.1134
    1_EC     O4  712   2.666   1.739   1.565 -0.2166  0.1218 -0.3638
    1_EC     C5  713   2.692   1.782   1.786 -0.1397 -0.4496 -0.1514
    1_EC     C6  714   2.622   1.835   1.662 -0.0813 -0.1307 -0.0475
    1_EC     O1  715   3.092   1.973   1.601 -0.0888 -0.0173 -0.6780
    1_EC     C2  716   3.103   1.918   1.708 -0.0341  0.0174 -0.6662
    1_EC     O3  717   3.045   1.966   1.821  0.2084 -0.3629 -0.3785
    1_EC     O4  718   3.094   1.783   1.717  0.4922  0.0035 -0.2664
    1_EC     C5  719   3.093   1.879   1.924  0.2454  0.1428  0.0319
    1_EC     C6  720   3.106   1.745   1.854  0.8074  0.3187 -0.2061
    1_EC     O1  721   3.743   1.580   3.309 -0.0253 -0.1687 -0.2990
    1_EC     C2  722   3.736   1.470   3.260  0.1571 -0.2015 -0.2538
    1_EC     O3  723   3.735   1.354   3.331  0.5819  0.0990  0.2517
    1_EC     O4  724   3.652   1.442   3.157  0.1101  0.3930 -0.3837
    1_EC     C5  725   3.762   1.252   3.234 -0.4453  0.0507  0.0081
    1_EC     C6  726   3.705   1.318   3.109 -0.2336  0.1171 -0.0527
    1_EC     O1  727   3.911   1.483   0.031  0.7562 -0.2877  0.0156
    1_EC     C2  728   3.888   1.365   0.042 -0.0004 -0.1487 -0.0531
    1_EC     O3  729   3.824   1.320   0.154  0.0136  0.4254  0.1916
    1_EC     O4  730   3.961   1.261  -0.003  0.0902 -0.1757  0.1527
    1_EC     C5  731   3.782   1.186   0.130  0.0885  0.4964 -0.3465
    1_EC     C6  732   3.870   1.151   0.011  0.2045 -0.2958 -0.0382
    1_EC     O1  733   1.232   3.226   1.989  0.3725  0.3989 -0.4247
    1_EC     C2  734   1.115   3.246   2.009  0.3719 -0.0070  0.0071
    1_EC     O3  735   1.024   3.156   1.963  0.4107  0.0698 -0.2243
    1_EC     O4  736   1.057   3.284   2.126  0.0669 -0.1446 -0.1003
    1_EC     C5  737   0.895   3.216   1.981  0.5682  0.3754 -0.1000
    1_EC     C6  738   0.918   3.307   2.100  0.2776  0.8218 -0.3847
    1_EC     O1  739   0.994   0.695   0.639 -0.2635  0.0905 -0.0965
    1_EC     C2  740   0.932   0.781   0.694 -0.3605 -0.0281 -0.0182
    1_EC     O3  741   0.868   0.775   0.814  0.5958  0.2338  0.5254
    1_EC     O4  742   0.919   0.907   0.644 -0.0013 -0.0445 -0.1553
    1_EC     C5  743   0.799   0.899   0.827 -0.1747 -0.1002 -0.2325
    1_EC     C6  744   0.890   0.995   0.753  0.0612 -0.1702 -0.0360
    1_EC     O1  745   0.933   3.697   2.702 -0.1191  0.0984 -0.1972
    1_EC     C2  746   0.970   3.639   2.603 -0.3550  0.2778 -0.3902
    1_EC     O3  747   1.083   3.676   2.538 -0.0262  0.1083  0.0821
    1_EC     O4  748   0.959   3.505   2.584  0.1155  0.1505  0.2115
    1_EC     C5  749   1.077   3.608   2.413 -0.1223 -0.1242  0.2140
    1_EC     C6  750   1.016   3.475   2.456  0.0585 -0.1922  0.2637
    1_EC     O1  751   0.924   2.059   1.080 -0.4204  0.2474  0.4876
    1_EC     C2  752   0.937   1.951   1.129  0.6744  0.1562  0.0175
    1_EC     O3  753   0.915   1.931   1.262  0.2902 -0.0622 -0.0762
    1_EC     O4  754   1.055   1.888   1.102  0.6564  0.2815 -0.3541
    1_EC     C5  755   0.948   1.794   1.281  0.2923 -0.0116  0.3028
    1_EC     C6  756   1.044   1.761   1.167  0.3117  0.5662  0.1529
    1_EC     O1  757   0.111   2.171   2.201  0.0506  0.3612 -0.3507
    1_EC     C2  758   0.163   2.279   2.197  0.3680  0.2231 -0.0024
    1_EC     O3  759   0.206   2.332   2.080  0.0650  0.2879 -0.0847
    1_EC     O4  760   0.256   2.311   2.291  0.4391 -0.7514  0.2743
    1_EC     C5  761   0.279   2.451   2.110  0.2469  0.0989  0.2238
    1_EC     C6  762   0.332   2.425   2.250  0.3298 -0.7633  0.0370
    1_EC     O1  763   2.106   1.265   0.013 -0.3008 -0.2497 -0.3208
    1_EC     C2  764   2.015   1.278  -0.064  0.0692 -0.4205 -0.7937
    1_EC     O3  765   1.924   1.178  -0.079 -0.3858 -0.0913 -0.2802
    1_EC     O4  766   1.948   1.397  -0.069 -0.3589 -0.6160  0.0720
    1_EC     C5  767   1.837   1.227  -0.182 -0.2201  0.2134 -0.2754
    1_EC     C6  768   1.855   1.378  -0.176 -0.4869  0.2339  0.0268
    1_EC     O1  769   2.012   1.879   2.787  0.6774 -0.5863 -0.5138
    1_EC     C2  770   2.066   1.815   2.873  0.4515  0.0577  0.1169
    1_EC     O3  771   2.038   1.834   3.005 -0.4093 -0.4882  0.0191
    1_EC     O4  772   2.134   1.697   2.860 -0.1459 -0.2759 -0.0228
    1_EC     C5  773   2.070   1.710   3.068 -0.6054 -0.4847  0.1270
    1_EC     C6  774   2.187   1.657   2.987 -0.1693  0.3636  0.1924
    1_EC     O1  775   1.507   1.317   3.693 -0.2451  0.0313  0.3338
    1_EC     C2  776   1.423   1.390   3.649 -0.1618  0.0220  0.1587
    1_EC     O3  777   1.324   1.361   3.561  0.2849  0.5352 -0.5275
    1_EC     O4  778   1.412   1.522   3.681 -0.4998 -0.0712  0.4345
    1_EC     C5  779   1.261   1.480   3.513 -0.5968  0.1673 -0.3030
    1_EC     C6  780   1.283   1.565   3.637 -0.2607 -0.0223 -0.2323
    1_EC     O1  781   2.540   0.536   1.783 -0.4563  0.3055 -0.3446
    1_EC     C2  782   2.568   0.494   1.673  0.6683  0.0201  0.0384
    1_EC     O3  783   2.479   0.503   1.571  0.2077 -0.7990  0.3625
    1_EC     O4  784   2.695   0.470   1.633  0.5514  0.0961 -0.3753
    1_EC     C5  785   2.533   0.415   1.472 -0.2445 -0.7463  0.0646
    1_EC     C6  786   2.682   0.415   1.502 -0.1632  0.1253 -0.3208
    1_EC     O1  787   2.673   0.080   0.536 -0.5873 -0.5614 -0.0208
    1_EC     C2  788   2.602   0.176   0.539  0.5547  0.3062  0.1618
    1_EC     O3  789   2.625   0.282   0.621  0.0818  0.2996  0.3054
    1_EC     O4  790   2.504   0.201   0.447  0.1542 -0.6539  0.3185
    1_EC     C5  791   2.519   0.376   0.597 -0.2193 -0.0109  0.4155
    1_EC     C6  792   2.421   0.299   0.509  0.4377 -0.0043 -0.3299
    1_EC     O1  793   0.442   2.146   1.631  0.0383 -0.5203  0.2548
    1_EC     C2  794   0.370   2.135   1.536  0.3033 -0.3756  0.0364
    1_EC     O3  795   0.260   2.056   1.533 -0.0885  0.1517  0.2798
    1_EC     O4  796   0.353   2.232   1.441 -0.3967 -0.0310  0.5071
    1_EC     C5  797   0.228   2.036   1.395  0.2402 -0.3491  0.2711
    1_EC     C6  798   0.286   2.163   1.335 -0.3874  0.0320  0.4611
    1_EC     O1  799   1.598   3.149   3.889 -0.1359 -0.1007 -0.3642
    1_EC     C2  800   1.576   3.226   3.979 -0.2799 -0.3058 -0.2200
    1_EC     O3  801   1.632   3.219   4.103 -0.2613  0.6398 -0.1675
    1_EC     O4  802   1.452   3.272   4.011 -0.2101 -0.4241  0.2165
    1_EC     C5  803   1.601   3.335   4.180 -0.1757  0.5109  0.0599
    1_EC     C6  804   1.471   3.372   4.111 -0.4270 -0.2732  0.1053
    1_EC     O1  805   1.448   3.083   3.030 -0.0530 -0.4685  0.2774
    1_EC     C2  806   1.543   3.019   2.993  0.2397 -0.1966  0.5583
    1_EC     O3  807   1.652   3.011   3.074  0.4212  0.7090  0.4185
    1_EC     O4  808   1.599   3.046   2.872  0.0077 -0.0878  0.4742
    1_EC     C5  809   1.751   2.935   3.004 -0.2476 -0.1030  0.3286
    1_EC     C6  810   1.709   2.955   2.859 -0.1730 -0.2822  0.2821
    1_EC     O1  811   0.521   0.430   2.611  0.1896  0.3620  0.2549
    1_EC     C2  812   0.461   0.533   2.627 -0.5583  0.0539 -0.4954
    1_EC     O3  813   0.448   0.594   2.748  0.3051  0.4729 -0.6050
    1_EC     O4  814   0.464   0.639   2.543  0.4968  0.3780 -0.0671
    1_EC     C5  815   0.340   0.686   2.727 -0.0797  0.2706  0.4025
    1_EC     C6  816   0.350   0.719   2.579  0.1804 -0.2322  0.3049
    1_EC     O1  817   1.980   1.599   3.393  0.2171  0.3315 -0.2214
    1_EC     C2  818   1.885   1.625   3.461  0.2020  0.6011 -0.3437
    1_EC     O3  819   1.833   1.537   3.551  1.1560  0.8084  0.4208
    1_EC     O4  820   1.876   1.741   3.532  0.3856 -0.0613  0.7768
    1_EC     C5  821   1.712   1.599   3.595  0.3251 -0.7898  0.4182
    1_EC     C6  822   1.748   1.746   3.595  0.1757 -0.7530  0.4195
    1_EC     O1  823   0.252   3.053   2.673  0.5281 -0.4059  0.1452
    1_EC     C2  824   0.242   3.137   2.588  0.6246 -0.4726  0.0690
    1_EC     O3  825   0.221   3.266   2.625  0.3866 -0.2286 -0.8733
    1_EC     O4  826   0.187   3.118   2.465 -0.0978  0.0462  0.3109
    1_EC     C5  827   0.222   3.338   2.502  0.5826  0.3345 -0.5482
    1_EC     C6  828   0.209   3.237   2.389  0.3429 -0.2424 -0.0145
    1_EC     O1  829   2.166   3.688   3.292  0.1710 -0.4894 -0.3729
    1_EC     C2  830   2.050   3.673   3.316  0.2350  0.2887  0.4655
    1_EC     O3  831   2.000   3.547   3.306  0.3592  0.2805 -0.0843
    1_EC     O4  832   1.979   3.721   3.422 -0.0918 -0.1411  0.4437
    1_EC     C5  833   1.858   3.555   3.318  0.3469  0.4418 -0.3514
    1_EC     C6  834   1.843   3.686   3.394 -0.1043  0.0002  0.3197
    1_EC     O1  835   1.523   1.093   2.175 -0.0722  0.1666 -0.1069
    1_EC     C2  836   1.579   1.050   2.077 -0.1541 -0.2209  0.0150
    1_EC     O3  837   1.552   1.103   1.955  0.2590 -0.1943 -0.0639
    1_EC     O4  838   1.595   0.920   2.042 -0.1454 -0.1065 -0.4075
    1_EC     C5  839   1.663   1.066   1.872  0.1612 -0.2443 -0.1726
    1_EC     C6  840   1.694   0.933   1.940 -0.0194 -0.3618 -0.3205
    1_EC     O1  841   3.134   0.133   1.897 -0.0431  0.1164 -0.9091
    1_EC     C2  842   3.169   0.021   1.871 -0.0545 -0.2051  0.3941
    1_EC     O3  843   3.293  -0.013   1.917  0.1321 -0.0714 -0.0035
    1_EC     O4  844   3.188  -0.030   1.747 -0.1427 -0.4198  0.4696
    1_EC     C5  845   3.313  -0.150   1.884 -0.0294 -0.2150  0.4839
    1_EC     C6  846   3.221  -0.169   1.765  0.0981 -0.3716  0.4084
    1_EC     O1  847   3.385   2.788   3.071 -0.3343 -0.3826  0.3469
    1_EC     C2  848   3.392   2.728   2.967  0.8928  0.1915  0.0844
    1_EC     O3  849   3.334   2.764   2.850  0.5924 -0.0183  0.1684
    1_EC     O4  850   3.443   2.603   2.955  0.6450  0.1583 -0.6995
    1_EC     C5  851   3.369   2.668   2.750 -0.4986  0.0701 -0.3185
    1_EC     C6  852   3.366   2.550   2.847  0.5091 -0.0952 -0.4809
    1_EC     O1  853   0.822   0.217   0.235 -0.5564 -0.3554  0.3481
    1_EC     C2  854   0.768   0.236   0.130 -0.2653 -0.8212  0.1152
    1_EC     O3  855   0.652   0.307   0.126  0.2589  0.0234 -0.2006
    1_EC     O4  856   0.789   0.168   0.014  1.2393  0.0344 -0.1460
    1_EC     C5  857   0.579   0.250   0.017  0.1067 -0.1954  0.0164
    1_EC     C6  858   0.696   0.227  -0.078  0.7201  0.4074  0.6108
    1_EC     O1  859   1.123   1.209   0.658 -0.3029  0.3482  0.3137
    1_EC     C2  860   1.112   1.232   0.541 -0.4440 -0.0324  0.2514
    1_EC     O3  861   1.203   1.197   0.445 -0.7781 -0.3252  0.0396
    1_EC     O4  862   1.031   1.332   0.499 -0.3362 -0.1050 -0.1377
    1_EC     C5  863   1.209   1.309   0.357  0.0808 -0.4548 -0.0759
    1_EC     C6  864   1.066   1.361   0.363  0.4188  0.4750  0.1717
    1_EC     O1  865   0.051   0.545   0.246 -0.5360  0.5979 -0.5677
    1_EC     C2  866  -0.040   0.482   0.294  0.0145  0.1742 -0.0678
    1_EC     O3  867  -0.170   0.491   0.256 -0.0332  0.2571  0.1098
    1_EC     O4  868  -0.026   0.349   0.321 -0.1660  0.2261  0.2898
    1_EC     C5  869  -0.256   0.396   0.319  0.2324  0.3809  0.6612
    1_EC     C6  870  -0.149   0.307   0.380 -0.0898 -0.5163 -0.0808
    1_EC     O1  871   3.750   3.511   1.640 -0.1120  0.1429  0.4261
    1_EC     C2  872   3.656   3.474   1.704 -0.0890 -0.0665  0.3365
    1_EC     O3  873   3.675   3.381   1.801  0.0992 -0.4526 -0.0674
    1_EC     O4  874   3.547   3.545   1.745  0.0358  0.2412  0.1377
    1_EC     C5  875   3.544   3.332   1.832 -0.0588 -0.0401 -0.0867
    1_EC     C6  876   3.454   3.441   1.777  0.1454 -0.0393 -0.4268
    1_EC     O1  877   1.608   1.558   3.281  0.2315 -0.1110 -0.0820
    1_EC     C2  878   1.575   1.625   3.187 -0.1819 -0.2992 -0.0740
    1_EC     O3  879   1.678   1.684   3.121 -0.2431 -0.2975 -0.1680
    1_EC     O4  880   1.473   1.605   3.099 -0.5075 -0.2620  0.2896
    1_EC     C5  881   1.619   1.762   3.017 -0.3302  0.4575  0.4355
    1_EC     C6  882   1.472   1.724   3.020 -0.1294 -0.3550  0.1418
    1_EC     O1  883   0.961   2.253   0.448  0.1545 -0.0698 -0.9384
    1_EC     C2  884   0.962   2.133   0.447  0.1259 -0.0877  0.0068
    1_EC     O3  885   1.064   2.058   0.496 -0.1015 -0.5700 -0.2443
    1_EC     O4  886   0.896   2.058   0.354 -0.3286  0.2522  0.0486
    1_EC     C5  887   1.025   1.921   0.489 -0.5707 -0.4815  0.5547
    1_EC     C6  888   0.904   1.922   0.397 -0.1004  0.2270 -0.0673
    1_EC     O1  889   0.321   2.776   3.823  0.4569 -0.0454 -0.3602
    1_EC     C2  890   0.341   2.790   3.941  0.0660 -0.0918 -0.2866
    1_EC     O3  891   0.257   2.736   4.034  0.3995  0.5916  0.4218
    1_EC     O4  892   0.375   2.911   3.993 -0.2211  0.0750 -0.4800
    1_EC     C5  893   0.323   2.764   4.158  0.4183  0.4192  0.4503
    1_EC     C6  894   0.406   2.888   4.130 -0.1906  0.6524 -0.3884
    1_EC     O1  895   3.372   1.277   0.671  0.4403  0.4929  0.4280
    1_EC     C2  896   3.423   1.264   0.563 -0.2849 -0.0038  0.1385
    1_EC     O3  897   3.505   1.160   0.532 -0.1044  0.2051 -0.0825
    1_EC     O4  898   3.362   1.303   0.448 -0.3974  0.6986  0.4309
    1_EC     C5  899   3.554   1.198   0.403 -0.9991 -0.2218 -0.5583
    1_EC     C6  900   3.460   1.302   0.344 -0.8963  0.1603 -0.0477
    1_EC     O1  901   3.710   1.066   2.789  0.0980 -0.1340  0.0053
    1_EC     C2  902   3.809   1.125   2.759  0.5266 -0.9552 -0.2312
    1_EC     O3  903   3.813   1.202   2.647 -0.2255 -0.4074  0.1158
    1_EC     O4  904   3.905   1.180   2.839  0.0586 -0.5151  0.0287
    1_EC     C5  905   3.951   1.211   2.613 -0.2172 -0.1825  0.2033
    1_EC     C6  906   4.015   1.188   2.749  0.0543 -0.5047  0.0243
    1_EC     O1  907   0.266   3.070   1.211  0.3325  0.1069 -0.1672
    1_EC     C2  908   0.243   2.976   1.140 -0.4593 -0.1572  0.4211
    1_EC     O3  909   0.137   2.980   1.054  0.0602  0.0423 -0.2227
    1_EC     O4  910   0.344   2.916   1.071 -0.3758  0.7455 -0.2642
    1_EC     C5  911   0.135   2.853   0.988  0.0374 -0.2753  0.3780
    1_EC     C6  912   0.280   2.809   1.001  0.1319  0.0254  0.3541
    1_EC     O1  913   2.367   3.554   0.748 -0.0994 -0.4686 -0.5111
    1_EC     C2  914   2.414   3.546   0.638  0.8255 -0.0484 -0.1504
    1_EC     O3  915   2.413   3.428   0.570 -0.0208  0.1161 -0.4277
    1_EC     O4  916   2.383   3.635   0.540  0.5909  0.4876  0.4051
    1_EC     C5  917   2.489   3.461   0.454  0.0222  0.2015 -0.3755
    1_EC     C6  918   2.486   3.612   0.444 -0.4190  0.1796 -0.6323
    1_EC     O1  919   0.580   2.616   0.332  0.4710  0.7813  0.3020
    1_EC     C2  920   0.580   2.573   0.444  0.2138  0.0731  0.0361
    1_EC     O3  921   0.627   2.446   0.454 -0.2539 -0.1297 -0.3330
    1_EC     O4  922   0.630   2.643   0.549  0.0867  0.1305  0.0580
    1_EC     C5  923   0.605   2.421   0.593 -0.6005 -0.1014 -0.3827
    1_EC     C6  924   0.635   2.553   0.661 -0.0885 -0.2777 -0.2622
    1_EC     O1  925   3.093   1.000   2.530  0.1854 -0.6487  0.2172
    1_EC     C2  926   3.052   0.920   2.451  0.1469 -0.3658 -0.0540
    1_EC     O3  927   3.114   0.799   2.434  0.4942 -0.2122  0.1103
    1_EC     O4  928   3.033   0.955   2.321  0.3987 -0.6812 -0.1798
    1_EC     C5  929   3.019   0.730   2.353  0.8227 -0.2931 -0.2050
    1_EC     C6  930   2.965   0.842   2.266 -0.0435 -0.5210  0.0320
    1_EC     O1  931   0.991   0.878   3.755  0.0122  0.4199  0.6168
    1_EC     C2  932   1.031   0.962   3.680  0.2465  0.1507  0.4378
    1_EC     O3  933   1.134   1.046   3.709  0.4454  0.2337 -0.4894
    1_EC     O4  934   0.948   1.051   3.619  0.4655 -0.3549 -0.6214
    1_EC     C5  935   1.161   1.118   3.588  0.2421  0.1646 -0.5759
    1_EC     C6  936   1.022   1.134   3.529 -0.0302  1.1243  0.2947
    1_EC     O1  937   2.331   1.519   1.778  0.1362  0.1371  0.3446
    1_EC     C2  938   2.347   1.410   1.825 -0.2872  0.1362  0.4866
    1_EC     O3  939   2.317   1.384   1.956 -0.4820 -0.2321  0.3716
    1_EC     O4  940   2.304   1.299   1.760  0.0394  0.2870  0.0116
    1_EC     C5  941   2.372   1.253   1.971  0.7746  0.2412  0.0697
    1_EC     C6  942   2.356   1.189   1.834 -0.0801  0.3096  0.1297
    1_EC     O1  943   1.687   1.405   1.587  0.0242  0.4976 -0.1091
    1_EC     C2  944   1.696   1.394   1.468 -0.2741  0.3466 -0.1183
    1_EC     O3  945   1.671   1.278   1.401  0.3327 -0.0113  0.2645
    1_EC     O4  946   1.775   1.474   1.392 -0.3225  0.3303 -0.1858
    1_EC     C5  947   1.760   1.278   1.290  0.4731  0.0516  0.3776
    1_EC     C6  948   1.765   1.426   1.257  0.2763 -0.0476 -0.1020
    1_EC     O1  949   3.595   0.877   1.294 -0.4014  0.0510 -0.0731
    1_EC     C2  950   3.646   0.782   1.346  0.1588  0.4301  0.0835
    1_EC     O3  951   3.633   0.756   1.479  0.1650  0.4876  0.0951
    1_EC     O4  952   3.772   0.743   1.313  0.2370  0.5676  0.2185
    1_EC     C5  953   3.698   0.631   1.503 -0.2792  0.1572 -0.4074
    1_EC     C6  954   3.787   0.618   1.380 -0.3463  0.1312 -0.4533
    1_EC     O1  955   0.558   0.870   0.562  0.0715 -0.3176  0.0421
    1_EC     C2  956   0.514   0.826   0.459 -0.5757 -0.2494  0.2847
    1_EC     O3  957   0.447   0.899   0.366  0.4564  0.3836  0.0189
    1_EC     O4  958   0.510   0.692   0.434  0.2355 -0.2604  0.1811
    1_EC     C5  959   0.452   0.820   0.247 -0.1489 -0.3223  0.4534
    1_EC     C6  960   0.443   0.681   0.308  0.9886 -0.6919 -0.1890
    1_EC     O1  961   0.572   2.583   2.474  0.1714  0.2106 -0.0818
    1_EC     C2  962   0.655   2.567   2.389  0.1099 -0.8505  0.0442
    1_EC     O3  963   0.633   2.506   2.270  0.6124  0.2919 -0.6537
    1_EC     O4  964   0.735   2.670   2.348  0.1585 -0.7280  0.4427
    1_EC     C5  965   0.751   2.497   2.189  0.8401 -0.3183 -0.2563
    1_EC     C6  966   0.814   2.626   2.238 -0.1578  0.1322 -0.1380
    1_EC     O1  967   3.554   1.881   0.790  0.4675 -0.2489 -0.0710
    1_EC     C2  968   3.478   1.789   0.803  0.3313 -0.0950  0.2302
    1_EC     O3  969   3.523   1.661   0.796 -0.1451 -0.2315 -0.4540
    1_EC     O4  970   3.360   1.798   0.737  0.2802 -0.4447  0.2728
    1_EC     C5  971   3.405   1.584   0.822 -0.2182  0.0966  0.2119
    1_EC     C6  972   3.295   1.675   0.771 -0.3442 -0.2167 -0.0786
    1_EC     O1  973   0.716   2.670   0.977  0.3415 -0.1896 -0.3651
    1_EC     C2  974   0.836   2.683   0.978  0.3347 -0.1228  0.3394
    1_EC     O3  975   0.887   2.776   1.062 -0.0719  0.4239 -0.0111
    1_EC     O4  976   0.921   2.577   0.970  0.1458 -0.2680  0.2345
    1_EC     C5  977   1.027   2.774   1.034 -0.1082 -0.2319 -0.1508
    1_EC     C6  978   1.051   2.636   0.974  0.0889 -0.0905 -0.3966
    1_EC     O1  979   0.118   1.913   0.552  0.1109 -0.3205  0.0693
    1_EC     C2  980   0.226   1.961   0.534 -0.1884  0.2869 -0.1063
    1_EC     O3  981   0.339   1.890   0.561 -0.2018  0.2373 -0.1795
    1_EC     O4  982   0.259   2.084   0.582 -0.2414  0.2205  0.0975
    1_EC     C5  983   0.453   1.974   0.538  0.3218 -0.4862 -0.2435
    1_EC     C6  984   0.396   2.114   0.550  0.0376 -0.6567  0.4338
    1_EC     O1  985   1.042   0.344   0.577 -0.0501  0.1169 -0.1533
    1_EC     C2  986   0.933   0.390   0.557 -0.0589  0.3026  0.3207
    1_EC     O3  987   0.819   0.344   0.614 -0.3619  0.2091 -0.3482
    1_EC     O4  988   0.900   0.443   0.436 -0.0872 -0.0134  0.1915
    1_EC     C5  989   0.729   0.453   0.593  0.0213  0.6449  0.2224
    1_EC     C6  990   0.777   0.512   0.461 -0.1697 -0.0296 -0.1533
    1_EC     O1  991   2.635   2.998   1.738 -0.5462 -0.2325 -0.1642
    1_EC     C2  992   2.582   2.945   1.832 -0.1304 -0.0679  0.1637
    1_EC     O3  993   2.518   3.022   1.924  0.2741 -0.2731  0.6227
    1_EC     O4  994   2.495   2.842   1.816 -0.0132 -0.2354  0.6002
    1_EC     C5  995   2.456   2.937   2.021 -0.7140 -0.1118  0.1434
    1_EC     C6  996   2.448   2.805   1.946 -0.0565 -0.3823  0.5432
    1_EC     O1  997   2.622   2.005   2.034 -0.3017  0.1016  0.5074
    1_EC     C2  998   2.546   2.074   1.971  0.0800 -0.0385 -0.1229
    1_EC     O3  999   2.571   2.207   1.967 -0.0408 -0.0026  0.2731
    1_EC     O4 1000   2.502   2.043   1.846 -0.3245  0.3390 -0.0749
    1_EC     C5 1001   2.453   2.260   1.906 -0.1785 -0.0966  0.4559
    1_EC     C6 1002   2.410   2.148   1.814 -0.1317  0.4568 -0.2466
    1_EC     O1 1003   0.108   0.077   3.115  0.0753  0.1997  0.2446
    1_EC     C2 1004   0.196   0.017   3.060 -0.1275  0.1723 -0.0527
    1_EC     O3 1005   0.327   0.039   3.089 -0.1583  0.3823 -0.0697
    1_EC     O4 1006   0.208  -0.114   3.026 -0.1176  0.1949 -0.1357
    1_EC     C5 1007   0.408  -0.017   2.985 -0.3247 -0.6095  0.3168
    1_EC     C6 1008   0.310  -0.117   2.926 -0.5418  0.1145 -0.5742
    1_EC     O1 1009   2.716   1.143   0.454  0.4571  0.1684  0.2698
    1_EC     C2 1010   2.733   1.190   0.563  0.0849  0.4172  0.2227
    1_EC     O3 1011   2.786   1.123   0.669  0.4491  0.1223 -0.1423
    1_EC     O4 1012   2.629   1.247   0.630 -0.4215 -0.4854  0.2213
    1_EC     C5 1013   2.800   1.218   0.775 -0.1399  0.4552 -0.3569
    1_EC     C6 1014   2.682   1.310   0.747 -0.5255  0.0643 -0.0252
    1_EC     O1 1015   0.295   1.006   3.907 -0.4508 -0.2496  0.1050
    1_EC     C2 1016   0.304   1.125   3.919  0.2484 -0.2938  0.0585
    1_EC     O3 1017   0.415   1.190   3.962  0.2952 -0.3069 -0.0424
    1_EC     O4 1018   0.245   1.213   3.835 -0.3019 -0.2071  0.5256
    1_EC     C5 1019   0.373   1.324   3.988 -0.2297 -0.4600 -0.0948
    1_EC     C6 1020   0.262   1.345   3.886 -0.0606  0.0420 -0.1782
    1_EC     O1 1021   3.500   2.639   3.662 -0.5276 -0.3770  0.0118
    1_EC     C2 1022   3.494   2.626   3.543  0.0444  0.1200 -0.0768
    1_EC     O3 1023   3.371   2.629   3.484  0.2110  0.8665 -0.3963
    1_EC     O4 1024   3.571   2.545   3.466  0.2100  0.1124  0.0964
    1_EC     C5 1025   3.396   2.635   3.344 -0.2830 -0.7860 -0.5840
    1_EC     C6 1026   3.533   2.569   3.330 -0.1150 -0.5740  0.0591
    1_EC     O1 1027   1.591   1.708   0.287  0.4256 -0.5699  0.3551
    1_EC     C2 1028   1.581   1.774   0.387 -0.2301 -0.4710  0.2317
    1_EC     O3 1029   1.538   1.903   0.384  0.2655 -0.3044  0.1902
    1_EC     O4 1030   1.638   1.748   0.508  0.9618  0.1298 -0.1779
    1_EC     C5 1031   1.524   1.944   0.520  0.1816 -0.0749  0.1117
    1_EC     C6 1032   1.645   1.872   0.578  0.3101  0.0630  0.0145
    1_EC     O1 1033   0.685   2.489   3.968  0.0650  0.6051 -0.0222
    1_EC     C2 1034   0.733   2.597   3.986  0.5091  0.3864  0.1310
    1_EC     O3 1035   0.844   2.622   4.060  0.8797 -0.2454 -0.2075
    1_EC     O4 1036   0.662   2.714   3.988 -0.1276  0.0043  0.2229
    1_EC     C5 1037   0.891   2.731   3.982 -0.0088  0.0554 -0.3353
    1_EC     C6 1038   0.764   2.802   3.940 -0.1784 -0.1438 -0.1592
    1_EC     O1 1039   0.327   3.011   3.221 -0.5142  0.4850  0.1949
    1_EC     C2 1040   0.442   2.997   3.192 -0.7997 -0.3011 -0.6098
    1_EC     O3 1041   0.525   3.098   3.155 -0.5255 -0.3608 -0.1660
    1_EC     O4 1042   0.488   2.892   3.119  0.4192 -0.4135  0.2918
    1_EC     C5 1043   0.652   3.043   3.122 -0.2552  0.2415 -0.1493
    1_EC     C6 1044   0.631   2.892   3.126  0.4147  0.1570  0.4005
    1_EC     O1 1045   1.542   0.109   1.277 -0.3264  0.4958  0.0537
    1_EC     C2 1046   1.543   0.019   1.199 -0.4540  0.6671 -0.1457
    1_EC     O3 1047   1.436  -0.066   1.205 -0.1116  0.2596  0.2183
    1_EC     O4 1048   1.562   0.042   1.066 -0.1453 -0.0729 -0.2325
    1_EC     C5 1049   1.476  -0.170   1.116 -0.2359  0.2969  0.1194
    1_EC     C6 1050   1.568  -0.094   1.022  0.3421 -0.2165  0.2661
    1_EC     O1 1051   1.323   2.039   3.042 -0.0901 -0.2104  0.3555
    1_EC     C2 1052   1.299   2.110   2.948  0.2027 -0.4372  0.1060
    1_EC     O3 1053   1.207   2.080   2.853  0.0864  0.7302 -0.1563
    1_EC     O4 1054   1.289   2.244   2.965  0.4369 -0.4339  0.2171
    1_EC     C5 1055   1.240   2.179   2.754 -0.2629  0.3962 -0.6095
    1_EC     C6 1056   1.299   2.295   2.832  0.3329 -0.4365  0.2090
    1_EC     O1 1057   1.691   2.193   0.659  0.1283  0.3673  0.1497
    1_EC     C2 1058   1.660   2.251   0.759  0.2048  0.3236  0.1989
    1_EC     O3 1059   1.534   2.232   0.808  0.0621 -0.1715 -0.3412
    1_EC     O4 1060   1.680   2.384   0.776 -0.2427  0.3977  0.1628
    1_EC     C5 1061   1.540   2.296   0.936 -0.4751 -0.0829 -0.3579
    1_EC     C6 1062   1.649   2.401   0.915 -0.0955 -0.3371  0.2862
    1_EC     O1 1063   2.362   1.500   0.786 -0.1102  0.3659  0.2353
    1_EC     C2 1064   2.351   1.592   0.710 -0.0127  0.1481 -0.0459
    1_EC     O3 1065   2.420   1.592   0.593 -0.0132  0.0813 -0.0466
    1_EC     O4 1066   2.237   1.663   0.690 -0.0258  0.1477  0.0280
    1_EC     C5 1067   2.410   1.727   0.545 -0.0897  0.0195 -0.2063
    1_EC     C6 1068   2.269   1.762   0.592 -0.1949 -0.1836 -0.3686
    1_EC     O1 1069   2.971   0.610   0.486 -0.0754  0.4629  0.4420
    1_EC     C2 1070   2.937   0.688   0.402  0.6898 -0.1904 -0.4942
    1_EC     O3 1071   3.025   0.773   0.342  0.4621  0.0139 -0.5427
    1_EC     O4 1072   2.824   0.761   0.420  0.2851 -0.8476 -0.3493
    1_EC     C5 1073   2.950   0.849   0.247  0.2862  0.0285 -0.3936
    1_EC     C6 1074   2.808   0.832   0.297  0.4761  0.2307  0.2273
    1_EC     O1 1075   2.155   1.300   3.500 -0.2595 -0.1194 -0.2931
    1_EC     C2 1076   2.124   1.184   3.514 -0.4709 -0.0670 -0.3282
    1_EC     O3 1077   2.111   1.102   3.406 -0.2152 -0.3063 -0.1789
    1_EC     O4 1078   2.049   1.138   3.617  0.6287  0.2041  0.6133
    1_EC     C5 1079   2.122   0.974   3.469  0.3937  0.1359  0.6310
    1_EC     C6 1080   2.076   0.998   3.612  0.3419  0.1481  0.6124
    1_EC     O1 1081   0.687   3.934   2.779 -0.3417  0.1236 -0.0339
    1_EC     C2 1082   0.770   3.907   2.861 -0.3441  0.8504  0.2156
    1_EC     O3 1083   0.740   3.917   2.993 -0.0621  0.2085  0.3356
    1_EC     O4 1084   0.899   3.947   2.848 -0.0885  0.0717  0.2750
    1_EC     C5 1085   0.858   3.883   3.067 -0.1856 -0.7999  0.0758
    1_EC     C6 1086   0.969   3.902   2.965 -0.1670 -0.2527  0.1976
    1_EC     O1 1087   0.363   2.912   1.593 -0.0432 -0.3699  0.2827
    1_EC     C2 1088   0.249   2.894   1.561 -0.1341  0.6383  0.0065
    1_EC     O3 1089   0.200   2.830   1.452 -0.0979  0.1358  0.2838
    1_EC     O4 1090   0.154   2.875   1.657 -0.1512 -0.1126 -0.1528
    1_EC     C5 1091   0.064   2.873   1.443  0.0497  0.5461 -0.0105
    1_EC     C6 1092   0.035   2.911   1.587 -0.1528  0.2409  0.0293
    1_EC     O1 1093   3.932   2.128   1.215  0.1571 -0.3151  0.1744
    1_EC     C2 1094   3.874   2.032   1.172  0.3570 -0.2317 -0.2863
    1_EC     O3 1095   3.914   1.905   1.201  0.7649 -0.1718 -0.5829
    1_EC     O4 1096   3.808   2.043   1.054  0.2073  0.1932 -0.1661
    1_EC     C5 1097   3.802   1.831   1.152  0.1492  0.3178  0.0633
    1_EC     C6 1098   3.737   1.919   1.047  0.1945  0.1950 -0.0677
    1_EC     O1 1099   1.126   2.413   3.314  0.6781 -0.1168 -0.5100
    1_EC     C2 1100   1.043   2.339   3.269 -0.3958  0.3444  0.6738
    1_EC     O3 1101   0.980   2.236   3.331 -0.0443 -0.2368  0.0687
    1_EC     O4 1102   0.953   2.380   3.176 -0.0164  0.0408  0.1680
    1_EC     C5 1103   0.944   2.156   3.218 -0.3556  0.0641 -0.0470
    1_EC     C6 1104   0.913   2.260   3.111  0.2199  0.1347 -0.1510
    1_EC     O1 1105   3.310   1.488   1.917  0.0946  0.3325 -0.2971
    1_EC     C2 1106   3.373   1.397   1.964 -0.2682  0.3837  0.2978
    1_EC     O3 1107   3.325   1.316   2.062 -0.2171 -0.1044 -0.0764
    1_EC     O4 1108   3.508   1.397   1.981 -0.2371 -0.1194  0.0608
    1_EC     C5 1109   3.424   1.231   2.121 -0.0611  0.2361  0.1515
    1_EC     C6 1110   3.540   1.266   2.029  0.0174 -0.0240  0.1515
    1_EC     O1 1111   2.306   3.686   2.661 -0.3085  0.4681  0.3828
    1_EC     C2 1112   2.255   3.600   2.728 -0.1933  0.0594 -0.0414
    1_EC     O3 1113   2.237   3.605   2.863  0.1767  0.4818 -0.0048
    1_EC     O4 1114   2.155   3.519   2.686 -0.1112 -0.0589 -0.0079
    1_EC     C5 1115   2.192   3.478   2.910  0.4704  0.2962 -0.2180
    1_EC     C6 1116   2.130   3.418   2.784  0.4744 -0.1868  0.0098
    1_EC     O1 1117   0.732   1.552   1.169  0.0611  0.5763  0.1444
    1_EC     C2 1118   0.617   1.573   1.195 -0.1445 -0.5603  0.2000
    1_EC     O3 1119   0.562   1.530   1.311  0.0556 -0.0430  0.4908
    1_EC     O4 1120   0.552   1.690   1.169  0.2464 -0.2490  0.6026
    1_EC     C5 1121   0.423   1.541   1.282  0.1762 -0.3152 -0.2033
    1_EC     C6 1122   0.414   1.654   1.180  0.1813 -0.2213 -0.1004
    1_EC     O1 1123   3.381   0.460   2.484 -0.4797 -0.0945  0.3203
    1_EC     C2 1124   3.407   0.389   2.577 -0.0826  0.0250  0.3051
    1_EC     O3 1125   3.326   0.370   2.685 -0.2316 -0.4680  0.1071
    1_EC     O4 1126   3.530   0.393   2.634  0.1737 -0.1349 -0.2331
    1_EC     C5 1127   3.390   0.271   2.766 -0.4413 -0.2569  0.5353
    1_EC     C6 1128   3.537   0.290   2.734 -0.6272 -0.4327 -0.4750
    1_EC     O1 1129   1.999   2.024   3.616 -0.4846  0.0575 -0.2368
    1_EC     C2 1130   1.983   2.012   3.498 -0.5031  0.3573 -0.2656
    1_EC     O3 1131   2.046   2.094   3.409  0.1152 -0.0555 -0.2132
    1_EC     O4 1132   1.868   1.977   3.434 -0.3138 -0.1236 -0.3500
    1_EC     C5 1133   2.036   2.037   3.278  0.0127  0.3395 -0.3790
    1_EC     C6 1134   1.911   1.953   3.300  0.1640  0.1468 -0.2474
    1_EC     O1 1135   2.087   1.519   1.280  0.1914  0.0053  0.0206
    1_EC     C2 1136   2.149   1.450   1.204 -0.1168  0.1701 -0.3857
    1_EC     O3 1137   2.265   1.387   1.237 -0.3075 -0.0933 -0.2077
    1_EC     O4 1138   2.107   1.396   1.086  0.1750 -0.2811 -0.2878
    1_EC     C5 1139   2.332   1.359   1.114 -0.2157 -0.5222 -0.0607
    1_EC     C6 1140   2.213   1.320   1.028 -0.0481 -0.6263 -0.2461
    1_EC     O1 1141   2.996   2.931   2.832  0.3163  0.7183  0.0909
    1_EC     C2 1142   2.981   2.921   2.950  0.4476  0.6901  0.1054
    1_EC     O3 1143   3.051   2.841   3.036  0.3880  0.5809  0.0535
    1_EC     O4 1144   2.897   2.996   3.026 -0.2999  0.0595 -0.0863
    1_EC     C5 1145   3.059   2.905   3.164 -0.3579 -0.5486  0.6805
    1_EC     C6 1146   2.948   3.008   3.159  0.2337  0.0606 -0.2887
    1_EC     O1 1147   3.389   3.261   0.581  0.6609  0.1296 -0.6210
    1_EC     C2 1148   3.385   3.146   0.615  0.4071  0.3323  0.0498
    1_EC     O3 1149   3.333   3.047   0.537 -0.2373  0.4442  0.3306
    1_EC     O4 1150   3.374   3.104   0.744  0.3605  0.1831 -0.0027
    1_EC     C5 1151   3.357   2.924   0.605 -0.3006  0.5751  0.5897
    1_EC     C6 1152   3.388   2.961   0.749 -0.1775  0.1517  0.6738
    1_EC     O1 1153   2.181   0.750   2.885  0.2297 -0.0257 -0.3235
    1_EC     C2 1154   2.111   0.821   2.953  0.2775 -0.1357 -0.1568
    1_EC     O3 1155   2.031   0.914   2.895 -0.2253 -0.1922  0.4378
    1_EC     O4 1156   2.148   0.863   3.077 -0.0061  0.0916 -0.1474
    1_EC     C5 1157   1.945   0.961   2.999 -0.3174 -0.0410  0.2960
    1_EC     C6 1158   2.024   0.918   3.122 -0.0507 -0.1880  0.0737
    1_EC     O1 1159   3.347   2.453   3.941 -0.5233  0.0275 -0.0906
    1_EC     C2 1160   3.412   2.380   3.872 -0.1569  0.0242  0.2543
    1_EC     O3 1161   3.488   2.282   3.928 -0.2608 -0.2697 -0.1133
    1_EC     O4 1162   3.362   2.309   3.768 -0.0196  0.1705  0.0855
    1_EC     C5 1163   3.567   2.246   3.815  0.2137  0.4662 -0.0278
    1_EC     C6 1164   3.473   2.254   3.696 -0.1436 -0.2367  0.1988
    1_EC     O1 1165   2.117   0.379   3.349 -0.2186 -0.3280 -0.0457
    1_EC     C2 1166   2.033   0.429   3.420  0.2102  0.1926  0.1001
    1_EC     O3 1167   1.906   0.383   3.435  0.1877  0.2437  0.0664
    1_EC     O4 1168   2.040   0.560   3.456 -0.4418  0.2236  0.1270
    1_EC     C5 1169   1.861   0.443   3.557 -0.4930 -0.3156  0.0975
    1_EC     C6 1170   1.952   0.564   3.568 -0.8831  0.0097 -0.2057
    1_EC     O1 1171   2.446   2.289   3.910  0.2015  0.1054 -0.1443
    1_EC     C2 1172   2.498   2.374   3.843  0.0760  0.2045 -0.1182
    1_EC     O3 1173   2.505   2.499   3.897 -0.1856  0.1624  0.0135
    1_EC     O4 1174   2.469   2.405   3.714 -0.1225  0.4768 -0.0098
    1_EC     C5 1175   2.599   2.560   3.809 -0.1630  0.2745  0.1160
    1_EC     C6 1176   2.564   2.504   3.672 -0.0357  0.4096  0.0266
    1_EC     O1 1177   3.847   3.147   2.472 -0.5510 -0.7926  0.0982
    1_EC     C2 1178   3.841   3.202   2.579  0.6856 -0.4398  0.0129
    1_EC     O3 1179   3.942   3.223   2.666  0.2994 -0.2377  0.4163
    1_EC     O4 1180   3.730   3.258   2.633  0.8046 -0.0185 -0.1825
    1_EC     C5 1181   3.894   3.255   2.797  0.5379  0.2295  0.3904
    1_EC     C6 1182   3.765   3.324   2.754  0.4521 -0.1662  0.0021
    1_EC     O1 1183   2.157   3.291   3.201 -0.1554  0.2925  0.6181
    1_EC     C2 1184   2.246   3.366   3.231 -0.0129  0.0756  0.7420
    1_EC     O3 1185   2.299   3.365   3.356  0.4587 -0.0401  0.5416
    1_EC     O4 1186   2.350   3.399   3.150 -0.2514 -0.0542  0.3802
    1_EC     C5 1187   2.397   3.469   3.360  0.0557  0.3414  0.5634
    1_EC     C6 1188   2.425   3.503   3.214  0.9621 -0.9449  0.4200
    1_EC     O1 1189   1.760   0.735   3.366  0.4972 -0.1305  0.2655
    1_EC     C2 1190   1.733   0.850   3.390  0.2682 -0.2051  0.3621
    1_EC     O3 1191   1.686   0.881   3.514  0.5522  0.1672  0.3772
    1_EC     O4 1192   1.822   0.950   3.368 -0.1614  0.0259 -0.3715
    1_EC     C5 1193   1.663   1.022   3.514 -0.1737  0.0535  0.1718
    1_EC     C6 1194   1.761   1.072   3.410 -0.0305 -0.1089  0.2285
    1_EC     O1 1195   3.055   1.444   0.672  0.2188  0.2652  0.1398
    1_EC     C2 1196   3.073   1.428   0.554 -0.2158 -0.1263  0.1239
    1_EC     O3 1197   2.986   1.357   0.478 -0.1131 -0.0431 -0.0735
    1_EC     O4 1198   3.122   1.523   0.470  0.1938 -0.4356  0.0063
    1_EC     C5 1199   3.056   1.341   0.355  0.1413 -0.1606  0.0843
    1_EC     C6 1200   3.132   1.472   0.337 -0.5169  0.1798 -0.2964
    1_EC     O1 1201   2.523   3.227   2.202 -0.3347 -0.2559 -0.1947
    1_EC     C2 1202   2.550   3.311   2.284  0.0152 -0.5755  0.0227
    1_EC     O3 1203   2.671   3.332   2.342  0.0851  0.0846 -0.3496
    1_EC     O4 1204   2.450   3.361   2.362  0.2717 -0.0757  0.0372
    1_EC     C5 1205   2.662   3.447   2.427  0.2499  0.1181 -0.3769
    1_EC     C6 1206   2.512   3.455   2.450  0.2869  0.0528 -0.1098
    1_EC     O1 1207   2.142   3.090   2.019  0.4223  0.0603  0.1239
    1_EC     C2 1208   2.131   3.138   2.128 -0.2790 -0.3955  0.2681
    1_EC     O3 1209   2.159   3.267   2.163 -0.0291 -0.4689  0.3421
    1_EC     O4 1210   2.177   3.058   2.228  0.1185  0.2460  0.6060
    1_EC     C5 1211   2.185   3.273   2.304 -0.3105  0.0093  0.3747
    1_EC     C6 1212   2.166   3.130   2.351  0.5043  0.0267  0.7719
    1_EC     O1 1213   1.960   3.408   2.483 -0.3281 -0.1998  0.2757
    1_EC     C2 1214   1.858   3.461   2.520 -0.5163  0.2062 -0.7952
    1_EC     O3 1215   1.829   3.581   2.463  0.3981  0.6361 -0.3801
    1_EC     O4 1216   1.743   3.389   2.525 -0.2185 -0.2276 -0.0438
    1_EC     C5 1217   1.699   3.619   2.505  0.6853  0.7025  0.4578
    1_EC     C6 1218   1.643   3.487   2.555  0.3179  0.4784 -0.5344
    1_EC     O1 1219   1.373   2.884   1.444 -0.4730 -0.6430  0.0797
    1_EC     C2 1220   1.448   2.826   1.517 -0.1857 -0.0240  0.2845
    1_EC     O3 1221   1.405   2.719   1.590  0.0851 -0.4659 -0.1922
    1_EC     O4 1222   1.574   2.784   1.484  0.0546  0.6459  0.3256
    1_EC     C5 1223   1.505   2.704   1.691 -0.1230  0.5761  0.1808
    1_EC     C6 1224   1.628   2.743   1.610  0.0258  0.0590  0.1543
    1_EC     O1 1225   0.966   2.535   3.717  0.6514  0.5721  0.1332
    1_EC     C2 1226   1.058   2.461   3.694  0.0700 -0.0862 -0.1221
    1_EC     O3 1227   1.169   2.515   3.637  0.4927  0.0615  0.8225
    1_EC     O4 1228   1.058   2.325   3.692  0.2421 -0.0829 -0.2879
    1_EC     C5 1229   1.259   2.405   3.626  0.0210 -0.2341 -0.2370
    1_EC     C6 1230   1.194   2.281   3.685  0.2893 -0.0540  0.4493
    1_EC     O1 1231   2.781   3.314   2.802  0.0685 -0.4968  0.2976
    1_EC     C2 1232   2.899   3.318   2.823  0.1242 -0.3033 -0.0364
    1_EC     O3 1233   2.986   3.376   2.736  0.0773  0.0266  0.1379
    1_EC     O4 1234   2.957   3.326   2.946 -0.2594 -0.3194  0.1471
    1_EC     C5 1235   3.119   3.342   2.778  0.1988 -0.0135 -0.2821
    1_EC     C6 1236   3.099   3.317   2.926 -0.3317 -0.2895 -0.3996
    1_EC     O1 1237   2.807   2.866   2.020  0.1773 -0.0524  0.1210
    1_EC     C2 1238   2.919   2.823   2.029  0.1718 -0.0959 -0.0203
    1_EC     O3 1239   2.991   2.761   1.932 -0.1727 -0.8279  0.1826
    1_EC     O4 1240   2.996   2.839   2.141 -0.1583 -0.1144  0.2098
    1_EC     C5 1241   3.103   2.699   1.996 -0.1666 -0.3583  0.6310
    1_EC     C6 1242   3.129   2.802   2.105 -0.1128 -0.1842  0.4550
    1_EC     O1 1243   0.641   2.645   3.585  0.0223 -0.3757  0.0173
    1_EC     C2 1244   0.532   2.673   3.542  0.0960 -0.2902 -0.1132
    1_EC     O3 1245   0.494   2.791   3.486 -0.5569 -0.4535 -0.0136
    1_EC     O4 1246   0.443   2.579   3.500 -0.2831  0.0887 -0.1592
    1_EC     C5 1247   0.351   2.791   3.501 -0.5489  0.0629  0.0814
    1_EC     C6 1248   0.318   2.644   3.524 -0.3155 -0.0123 -0.0567
    1_EC     O1 1249   1.174   3.631   1.263  0.8398  0.3317 -0.5979
    1_EC     C2 1250   1.178   3.558   1.168  0.0196  0.0366 -0.4174
    1_EC     O3 1251   1.292   3.530   1.100 -0.1232 -0.7310 -0.3460
    1_EC     O4 1252   1.104   3.601   1.062  0.0205 -0.0065 -0.4355
    1_EC     C5 1253   1.253   3.433   1.002 -0.5827  0.2119 -1.1137
    1_EC     C6 1254   1.126   3.505   0.959 -0.8873 -0.0254 -0.6199
    1_EC     O1 1255   1.682   3.639   0.337 -0.3906  0.0731  0.5003
    1_EC     C2 1256   1.786   3.691   0.365 -0.4522  0.6569 -0.3414
    1_EC     O3 1257   1.882   3.711   0.270  0.2773  0.3301  0.3149
    1_EC     O4 1258   1.784   3.809   0.433  0.3130  0.4000  0.1335
    1_EC     C5 1259   1.990   3.773   0.341  0.5610  0.2763 -0.0647
    1_EC     C6 1260   1.921   3.846   0.455  0.3751  0.4158 -0.2641
    1_EC     O1 1261   2.810   2.170   2.428  0.3288 -0.2527  0.4766
    1_EC     C2 1262   2.729   2.151   2.514 -0.5411  0.0916 -0.2546
    1_EC     O3 1263   2.608   2.211   2.522 -0.2188  0.6583  0.4381
    1_EC     O4 1264   2.738   2.033   2.581 -0.0677 -0.1776 -0.7832
    1_EC     C5 1265   2.524   2.107   2.572  0.1063  0.0823 -0.2061
    1_EC     C6 1266   2.623   2.040   2.666  0.2471  0.0466 -0.3798
    1_EC     O1 1267   2.471   1.742   2.671 -0.1621  0.3494  0.2576
    1_EC     C2 1268   2.561   1.664   2.687 -0.1322  0.2654 -0.3279
    1_EC     O3 1269   2.689   1.700   2.714 -0.2832  0.1109  0.6312
    1_EC     O4 1270   2.580   1.577   2.584  0.5690 -0.0544  0.0619
    1_EC     C5 1271   2.763   1.578   2.714 -0.1905  0.1604 -0.3329
    1_EC     C6 1272   2.684   1.487   2.621  0.0572 -0.6005  0.1914
    1_EC     O1 1273   2.702   0.245   3.236 -0.0801 -0.0249  0.1634
    1_EC     C2 1274   2.599   0.213   3.290  0.1597 -0.0874  0.5882
    1_EC     O3 1275   2.476   0.231   3.234  0.2341 -0.7745  0.1912
    1_EC     O4 1276   2.584   0.097   3.359  0.3164 -0.4724 -0.0137
    1_EC     C5 1277   2.379   0.201   3.334  0.3922 -0.2689  0.4988
    1_EC     C6 1278   2.454   0.099   3.418  0.3708 -0.6048  0.1110
    1_EC     O1 1279   1.164   3.803   3.637 -0.2987 -0.3318  0.0796
    1_EC     C2 1280   1.147   3.891   3.717  0.5297 -0.3763  0.3139
    1_EC     O3 1281   1.197   4.017   3.716 -0.5213  0.0544 -0.1941
    1_EC     O4 1282   1.112   3.868   3.847 -0.3981 -0.0483  0.1289
    1_EC     C5 1283   1.122   4.099   3.806 -0.5344 -0.1450 -0.0219
    1_EC     C6 1284   1.056   3.992   3.892 -0.7850 -0.1121 -0.1717
    1_EC     O1 1285   0.974   2.780   0.698  0.5325  0.2717 -0.2919
    1_EC     C2 1286   0.973   2.720   0.594  0.6835 -0.4522  0.1161
    1_EC     O3 1287   0.941   2.786   0.479 -0.2336 -0.0507  0.5906
    1_EC     O4 1288   0.920   2.597   0.573 -0.3813  0.0751 -0.3900
    1_EC     C5 1289   0.969   2.698   0.371  0.2949  0.0654  0.6297
    1_EC     C6 1290   0.955   2.563   0.439  0.4597 -0.3180 -0.0814
    1_EC     O1 1291   2.374   3.082   1.481 -0.5205  0.3361 -0.1719
    1_EC     C2 1292   2.476   3.145   1.478 -0.2952 -0.0203  0.0484
    1_EC     O3 1293   2.583   3.101   1.408  0.1511  0.1172  0.6331
    1_EC     O4 1294   2.474   3.273   1.434 -0.1254  0.2079  0.6851
    1_EC     C5 1295   2.685   3.199   1.433  0.4560  0.0484 -0.2887
    1_EC     C6 1296   2.604   3.322   1.472  0.2018 -0.2705  0.1978
    1_EC     O1 1297   1.607   1.029   3.897 -0.1876  0.1839  0.0524
    1_EC     C2 1298   1.498   0.981   3.910 -0.2406  0.2188 -0.2413
    1_EC     O3 1299   1.405   1.017   4.004  0.0971 -0.2531  0.2792
    1_EC     O4 1300   1.480   0.847   3.895 -0.1385  0.1613  0.1354
    1_EC     C5 1301   1.286   0.940   3.984  0.0678 -0.0971 -0.1593
    1_EC     C6 1302   1.338   0.829   3.895 -0.0457 -0.6183  0.4169
    1_EC     O1 1303   3.393   3.518   2.160  0.5828 -0.2986  0.0887
    1_EC     C2 1304   3.371   3.401   2.149 -0.1168 -0.2152  0.5031
    1_EC     O3 1305   3.466   3.303   2.149 -0.0118 -0.1144  0.0058
    1_EC     O4 1306   3.263   3.351   2.084 -0.1214  0.4880 -0.0461
    1_EC     C5 1307   3.400   3.183   2.188  0.2259 -0.2263  0.0657
    1_EC     C6 1308   3.262   3.216   2.133  0.6462  0.2279 -0.7297
    1_EC     O1 1309   1.969   1.845   0.426  0.5418  0.3174 -0.1916
    1_EC     C2 1310   1.977   1.740   0.369  0.0745  0.1869 -0.0261
    1_EC     O3 1311   2.038   1.628   0.417  0.3715  0.2464 -0.2622
    1_EC     O4 1312   1.869   1.687   0.305 -0.0243 -0.5746  0.7537
    1_EC     C5 1313   2.027   1.525   0.318 -0.3406  0.1725 -0.1109
    1_EC     C6 1314   1.903   1.565   0.239 -0.2572 -0.0539 -0.3568
    1_EC     O1 1315   2.456   2.730   0.449 -0.5950 -0.1871  0.8129
    1_EC     C2 1316   2.475   2.642   0.370 -0.2609  0.5929  0.0159
    1_EC     O3 1317   2.402   2.622   0.257  0.1023  0.2919 -0.1685
    1_EC     O4 1318   2.508   2.518   0.415  0.4565  0.5286 -0.6591
    1_EC     C5 1319   2.412   2.485   0.215  0.7611  0.2411  0.1370
    1_EC     C6 1320   2.528   2.435   0.300  0.7283 -0.2186 -0.0863
    1_EC     O1 1321   3.496   1.687   3.708  0.7944 -0.2077  0.0078
    1_EC     C2 1322   3.524   1.748   3.609 -0.1184  0.1541 -0.0402
    1_EC     O3 1323   3.452   1.731   3.495 -0.4013 -0.4126  0.2172
    1_EC     O4 1324   3.560   1.879   3.607 -0.0363  0.1325  0.0191
    1_EC     C5 1325   3.518   1.807   3.393 -0.2903 -0.3061  0.3680
    1_EC     C6 1326   3.616   1.889   3.476  0.3696 -0.8256  0.1128
    1_EC     O1 1327   3.353   1.410   2.813  0.3935  0.2675 -0.3693
    1_EC     C2 1328   3.438   1.435   2.732  0.2788  0.0819 -0.5496
    1_EC     O3 1329   3.567   1.445   2.773  0.0812  0.0671  0.1032
    1_EC     O4 1330   3.446   1.375   2.611 -0.1583  0.7199 -0.8985
    1_EC     C5 1331   3.644   1.490   2.660  0.3972 -0.6054  0.0480
    1_EC     C6 1332   3.555   1.442   2.547  0.4901  0.1873 -0.3638
    1_EC     O1 1333   0.238   3.676   3.586 -0.0135 -0.2468 -0.0636
    1_EC     C2 1334   0.222   3.657   3.468  0.0152  0.0522 -0.1149
    1_EC     O3 1335   0.092   3.649   3.429 -0.1219 -0.5327  0.4475
    1_EC     O4 1336   0.287   3.732   3.375  0.1480  0.1842  0.0816
    1_EC     C5 1337   0.103   3.623   3.289  0.0786  0.0496  0.3530
    1_EC     C6 1338   0.246   3.662   3.257  0.2385 -0.4693  0.4282
    1_EC     O1 1339   3.620   0.257   0.745  0.1313  0.1601 -0.0942
    1_EC     C2 1340   3.654   0.360   0.795 -0.3819  0.5174 -0.4679
    1_EC     O3 1341   3.755   0.437   0.746  0.6512 -0.5057 -0.0008
    1_EC     O4 1342   3.568   0.456   0.842 -0.2198  0.5605 -0.2561
    1_EC     C5 1343   3.785   0.527   0.853  0.4641 -0.8811  0.3719
    1_EC     C6 1344   3.655   0.526   0.931 -0.1451  0.8482 -0.5526
    1_EC     O1 1345   0.740   3.047   3.440 -0.3437 -0.0625  0.2362
    1_EC     C2 1346   0.816   2.957   3.461  0.1482  0.3390  0.1773
    1_EC     O3 1347   0.849   2.917   3.587 -0.0658 -0.0114  0.1220
    1_EC     O4 1348   0.821   2.844   3.386 -0.1182  0.2521  0.2914
    1_EC     C5 1349   0.959   2.827   3.565 -0.4551 -0.4789  0.0628
    1_EC     C6 1350   0.944   2.781   3.421  0.5023  0.9925 -0.5316
    1_EC     O1 1351   1.103   0.414   3.419 -0.0539 -0.1938  0.7236
    1_EC     C2 1352   1.008   0.347   3.450 -0.6104  0.1459 -0.2070
    1_EC     O3 1353   0.976   0.320   3.579 -0.2832 -0.2459 -0.2031
    1_EC     O4 1354   0.888   0.362   3.388 -0.5682 -0.3918 -0.4273
    1_EC     C5 1355   0.861   0.235   3.570  0.0402 -0.6746 -0.3272
    1_EC     C6 1356   0.811   0.248   3.427 -0.6282 -0.2278 -0.0610
    1_EC     O1 1357   2.665   1.005   2.167 -0.0003 -0.0680 -0.6122
    1_EC     C2 1358   2.671   0.939   2.067  0.4682  0.1971 -0.7612
    1_EC     O3 1359   2.636   0.972   1.939 -0.3683 -0.0732 -0.6078
    1_EC     O4 1360   2.766   0.846   2.040  0.4337 -0.0854  0.0648
    1_EC     C5 1361   2.621   0.852   1.862 -0.2252 -0.2158 -0.4163
    1_EC     C6 1362   2.723   0.763   1.931  0.1276  0.3777 -0.1697
    1_EC     O1 1363   2.626   0.637   2.239 -0.1175 -0.6284 -0.1380
    1_EC     C2 1364   2.640   0.574   2.340  0.4789 -0.0551  0.1532
    1_EC     O3 1365   2.576   0.458   2.371  0.3043 -0.0540 -0.2000
    1_EC     O4 1366   2.731   0.606   2.436  0.2899  0.2157  0.2421
    1_EC     C5 1367   2.649   0.396   2.477 -0.2398 -0.1378  0.1295
    1_EC     C6 1368   2.696   0.523   2.546  0.0672 -0.1323 -0.0873
    1_EC     O1 1369   0.171   2.369   2.996  0.5540 -0.3248  0.0255
    1_EC     C2 1370   0.213   2.481   2.999 -0.2346 -0.0085 -0.5224
    1_EC     O3 1371   0.263   2.554   2.896  0.4032  0.1888 -0.0815
    1_EC     O4 1372   0.154   2.581   3.070 -0.1800 -0.0581 -0.4073
    1_EC     C5 1373   0.314   2.680   2.941  0.1935  0.0025  0.6772
    1_EC     C6 1374   0.238   2.697   3.072 -0.3461  0.0540  0.3613
    1_EC     O1 1375   1.190   1.605   1.893 -0.4980 -0.9103 -0.2561
    1_EC     C2 1376   1.285   1.538   1.923  0.1206  0.1175  0.1219
    1_EC     O3 1377   1.334   1.442   1.840  0.1372 -0.0264  0.2978
    1_EC     O4 1378   1.380   1.561   2.018 -0.1379 -0.1579  0.4533
    1_EC     C5 1379   1.415   1.354   1.919  0.1501 -0.2133  0.0763
    1_EC     C6 1380   1.470   1.450   2.023 -0.1470 -0.1781  0.2006
    1_EC     O1 1381   1.478   3.609   3.453 -0.1683 -0.2507  0.0447
    1_EC     C2 1382   1.445   3.571   3.562 -0.5806 -0.0317 -0.0038
    1_EC     O3 1383   1.465   3.645   3.674  0.8202 -0.2658 -0.0920
    1_EC     O4 1384   1.463   3.444   3.606 -0.3883 -0.0901 -0.2506
    1_EC     C5 1385   1.386   3.578   3.771  0.1728  0.0880 -0.3690
    1_EC     C6 1386   1.377   3.435   3.720  0.1405 -0.1006  0.1540
    1_EC     O1 1387   3.594   2.280   2.458 -0.4656  0.1400 -0.4226
    1_EC     C2 1388   3.580   2.207   2.552 -0.0142  0.0497 -0.4228
    1_EC     O3 1389   3.577   2.251   2.680 -0.5472 -0.1285 -0.3718
    1_EC     O4 1390   3.494   2.102   2.538 -0.4391  0.3794 -0.2741
    1_EC     C5 1391   3.569   2.127   2.751 -0.3443 -0.1905 -0.4576
    1_EC     C6 1392   3.502   2.026   2.659 -0.5631 -0.0027 -0.5040
    1_EC     O1 1393   0.891   1.868   3.049  0.0614 -0.2167 -0.0306
    1_EC     C2 1394   0.972   1.850   2.962  0.4547 -0.2616  0.3400
    1_EC     O3 1395   0.947   1.893   2.835 -0.0332 -0.3695  0.3964
    1_EC     O4 1396   1.104   1.818   2.974  0.5593  0.0893  0.1409
    1_EC     C5 1397   1.035   1.824   2.745 -0.4765 -0.5759  0.1165
    1_EC     C6 1398   1.148   1.788   2.841 -0.0761  0.1269 -0.0820
    1_EC     O1 1399   0.640   3.202   2.686  0.3196  0.1795  0.1370
    1_EC     C2 1400   0.730   3.247   2.752  0.1116 -0.0779  0.6042
    1_EC     O3 1401   0.824   3.171   2.814  0.4734 -0.0804  0.0675
    1_EC     O4 1402   0.704   3.350   2.837 -0.1639 -0.1649  0.6236
    1_EC     C5 1403   0.909   3.265   2.880 -0.5288  0.1933  1.0117
    1_EC     C6 1404   0.831   3.396   2.882 -0.0106  0.5467 -0.5082
    1_EC     O1 1405   0.812   1.004   1.286 -0.8641  0.0584 -0.2874
    1_EC     C2 1406   0.822   0.964   1.398 -0.4681  0.0951 -0.3055
    1_EC     O3 1407   0.731   0.975   1.499 -0.0145 -0.2510  0.1477
    1_EC     O4 1408   0.892   0.849   1.419  0.2043  0.5819  0.1425
    1_EC     C5 1409   0.802   0.942   1.619 -0.1491 -0.2863  0.2178
    1_EC     C6 1410   0.915   0.860   1.560 -0.0177 -0.1189  0.2357
    1_EC     O1 1411   2.025   0.128   0.232 -0.1458 -0.4827 -0.6167
    1_EC     C2 1412   1.916   0.146   0.185 -0.2591  0.2149 -0.1043
    1_EC     O3 1413   1.846   0.260   0.209 -0.6006 -0.1813  0.8146
    1_EC     O4 1414   1.859   0.075   0.084  0.1879  0.0901 -0.2691
    1_EC     C5 1415   1.714   0.232   0.161 -0.1645 -1.0957  0.1241
    1_EC     C6 1416   1.743   0.145   0.040 -0.0821 -0.4064 -0.3512
    1_EC     O1 1417   2.583   0.346   3.559  0.0526  0.7023 -0.2213
    1_EC     C2 1418   2.525   0.381   3.658  0.0973 -0.0405  0.0728
    1_EC     O3 1419   2.551   0.493   3.730 -0.1868 -0.0861  0.2466
    1_EC     O4 1420   2.398   0.340   3.683 -0.1258  0.4435 -0.2637
    1_EC     C5 1421   2.491   0.457   3.854 -0.4304 -0.4110  0.0347
    1_EC     C6 1422   2.367   0.376   3.817 -0.6057 -0.0145 -0.2466
    1_EC     O1 1423   1.415   1.809   2.621 -0.4125 -0.2943  0.2221
    1_EC     C2 1424   1.407   1.815   2.501 -0.1320 -0.0149  0.2158
    1_EC     O3 1425   1.390   1.702   2.428  0.3142 -0.3519  0.6207
    1_EC     O4 1426   1.318   1.898   2.442 -0.1740 -0.2792 -0.0973
    1_EC     C5 1427   1.395   1.744   2.291  0.4023 -0.2728  0.6483
    1_EC     C6 1428   1.334   1.883   2.301 -0.3926 -0.5604 -0.0931
    1_EC     O1 1429   2.988   3.833   2.123  0.0465  0.0995  0.0191
    1_EC     C2 1430   2.990   3.714   2.107  0.2537  0.1054 -0.0061
    1_EC     O3 1431   2.915   3.629   2.183  0.0860  0.1537 -0.1158
    1_EC     O4 1432   3.013   3.655   1.987 -0.2074 -0.0298 -0.0288
    1_EC     C5 1433   2.898   3.504   2.116  0.3685  0.4178 -0.6852
    1_EC     C6 1434   3.015   3.516   2.020  0.5993 -0.1273 -0.4712
    1_EC     O1 1435   1.351   0.574   0.127 -0.2288 -0.1093  0.7132
    1_EC     C2 1436   1.430   0.608   0.211  0.2406 -0.6831  0.5049
    1_EC     O3 1437   1.400   0.617   0.344  0.0231  0.3664  0.3932
    1_EC     O4 1438   1.559   0.568   0.197  0.2178 -0.5289 -0.1533
    1_EC     C5 1439   1.524   0.632   0.415  0.5093  0.1540 -0.3924
    1_EC     C6 1440   1.629   0.630   0.305  0.5259 -0.4915 -0.3719
    1_EC     O1 1441   0.329   3.575   1.148 -0.0627 -0.4292  0.6852
    1_EC     C2 1442   0.304   3.690   1.173  0.2263 -0.2081 -0.0324
    1_EC     O3 1443   0.254   3.722   1.295 -0.1502 -0.3503 -0.1469
    1_EC     O4 1444   0.386   3.786   1.123 -0.1113  0.3023  0.4003
    1_EC     C5 1445   0.226   3.860   1.272  0.6799 -0.0917  0.3344
    1_EC     C6 1446   0.311   3.904   1.154  0.0173  0.4727  0.0593
    1_EC     O1 1447   3.630   1.510   0.525 -0.0653 -0.1392 -0.1354
    1_EC     C2 1448   3.674   1.619   0.502  0.2536 -0.3279 -0.4238
    1_EC     O3 1449   3.757   1.665   0.600  0.1669 -0.4006 -0.3158
    1_EC     O4 1450   3.716   1.663   0.380 -0.3232  0.6064 -0.2934
    1_EC     C5 1451   3.802   1.792   0.553  0.3315 -0.2373  0.2764
    1_EC     C6 1452   3.756   1.798   0.408 -0.4372  0.4738  0.5377
    1_EC     O1 1453   1.590   2.020   1.291 -0.3539 -0.0853  0.0358
    1_EC     C2 1454   1.478   2.055   1.266 -0.0656  0.4648 -0.5079
    1_EC     O3 1455   1.384   2.047   1.365  0.5659 -0.8616  0.0141
    1_EC     O4 1456   1.443   2.170   1.204 -0.2332  0.7077  0.0320
    1_EC     C5 1457   1.258   2.067   1.301  0.5316 -0.1419  0.2963
    1_EC     C6 1458   1.302   2.151   1.183 -0.2329  0.3462  0.3498
    1_EC     O1 1459   3.330   0.781   3.201 -0.1676  0.2928  0.6200
    1_EC     C2 1460   3.385   0.865   3.134  0.1864  0.0001  0.5432
    1_EC     O3 1461   3.514   0.845   3.094  0.0721 -0.0006  0.1717
    1_EC     O4 1462   3.359   0.997   3.115  0.1992 -0.0809 -0.0690
    1_EC     C5 1463   3.570   0.966   3.044 -0.0222 -0.0545 -0.0631
    1_EC     C6 1464   3.438   1.029   3.001  0.1004  0.2071 -0.0578
    1_EC     O1 1465   0.628   2.187   2.391  0.2606 -0.8757  0.5458
    1_EC     C2 1466   0.529   2.120   2.376  0.0860 -0.5265  0.1106
    1_EC     O3 1467   0.500   2.040   2.270  0.3809  0.1650 -0.5014
    1_EC     O4 1468   0.452   2.075   2.478 -0.4286 -0.0002 -0.0363
    1_EC     C5 1469   0.433   1.922   2.316  0.1947  0.4428 -0.0498
    1_EC     C6 1470   0.352   1.987   2.426 -0.2786 -0.1732 -0.0351
    1_EC     O1 1471   2.002   2.885   0.476 -0.0927  0.9640  0.4715
    1_EC     C2 1472   1.942   2.919   0.377  0.1620  0.5971  0.1883
    1_EC     O3 1473   1.811   2.952   0.390  0.0374  0.1911 -0.0344
    1_EC     O4 1474   1.991   3.011   0.290 -0.3756  0.3556 -0.3727
    1_EC     C5 1475   1.766   2.984   0.258  0.2551  0.1174 -0.1263
    1_EC     C6 1476   1.894   3.022   0.185 -0.2002  0.9974 -0.4715
    1_EC     O1 1477   1.477   3.017   1.847  0.5219 -0.3940  0.1078
    1_EC     C2 1478   1.362   2.984   1.848  0.3907  0.0559  0.0783
    1_EC     O3 1479   1.282   2.987   1.739  0.0435  0.4838  0.3415
    1_EC     O4 1480   1.328   2.870   1.915  0.3223 -0.0210 -0.0880
    1_EC     C5 1481   1.152   2.955   1.789  0.1240  0.0935  0.3068
    1_EC     C6 1482   1.187   2.895   1.924  0.3174 -0.1398  0.1516
    1_EC     O1 1483   2.855   0.605   0.004 -0.6386  0.2846 -0.0143
    1_EC     C2 1484   2.859   0.554  -0.104  0.4193 -0.0989  0.1971
    1_EC     O3 1485   2.873   0.419  -0.117  0.3664 -0.0867  0.0088
    1_EC     O4 1486   2.886   0.619  -0.221 -0.3171 -0.1239  0.0045
    1_EC     C5 1487   2.935   0.402  -0.245 -0.3924 -0.1556 -0.3543
    1_EC     C6 1488   2.886   0.522  -0.326 -0.7206 -0.0763 -0.0410
    1_EC     O1 1489   0.291   3.290   0.579 -0.4433  0.3773 -0.2627
    1_EC     C2 1490   0.344   3.359   0.661 -0.3598 -0.0423  0.0409
    1_EC     O3 1491   0.473   3.401   0.663 -0.3693 -0.0121  0.0164
    1_EC     O4 1492   0.276   3.456   0.728 -0.4927 -0.1287  0.0303
    1_EC     C5 1493   0.498   3.483   0.777 -0.1397 -0.0839  0.0204
    1_EC     C6 1494   0.359   3.492   0.839 -0.1739 -1.0167  0.0886
    1_EC     O1 1495   0.412   2.682   1.925 -0.0786 -0.0663  0.2169
    1_EC     C2 1496   0.319   2.758   1.925  0.0457  0.0862 -0.0996
    1_EC     O3 1497   0.335   2.893   1.932 -0.3478  0.1293 -0.0287
    1_EC     O4 1498   0.206   2.729   1.995  0.2680  0.1645  0.2938
    1_EC     C5 1499   0.207   2.958   1.942 -0.4905 -0.0446 -0.6710
    1_EC     C6 1500   0.120   2.842   1.986 -0.0372 -0.0791  0.1562
    1_EC     O1 1501   1.125   3.259   1.256  0.1362 -0.0692  0.0151
    1_EC     C2 1502   1.033   3.188   1.285  0.4168 -0.6670 -0.5289
    1_EC     O3 1503   1.044   3.085   1.373 -0.4129 -0.2910  0.0311
    1_EC     O4 1504   0.909   3.179   1.229  0.3512 -0.2582 -0.4533
    1_EC     C5 1505   0.923   3.009   1.384 -0.2675 -0.5239  0.0328
    1_EC     C6 1506   0.860   3.046   1.251  0.3025 -0.1912 -0.1483
    1_EC     O1 1507   0.396   1.629   0.389 -0.1816 -0.7850  0.0935
    1_EC     C2 1508   0.310   1.655   0.309  0.2395  0.2799 -0.0419
    1_EC     O3 1509   0.201   1.730   0.340  0.0770 -0.0003  0.0750
    1_EC     O4 1510   0.288   1.583   0.196 -0.6084 -0.2103  0.4222
    1_EC     C5 1511   0.104   1.722   0.234  0.0963  0.5124  0.0162
    1_EC     C6 1512   0.186   1.655   0.126 -0.2157  0.0193  0.0848
    1_EC     O1 1513   2.110   0.484   2.355  0.7433  0.3761 -0.0940
    1_EC     C2 1514   2.122   0.368   2.385  0.0861  0.1415 -0.7083
    1_EC     O3 1515   2.015   0.291   2.415  0.4882  0.0708  0.6241
    1_EC     O4 1516   2.223   0.317   2.461 -0.3041  0.1434 -0.1852
    1_EC     C5 1517   2.067   0.158   2.410 -0.3156 -0.2294 -0.1428
    1_EC     C6 1518   2.216   0.178   2.433 -0.3312  0.1865 -0.3915
    1_EC     O1 1519   3.741   0.923   3.740 -0.1746 -0.8039  0.1760
    1_EC     C2 1520   3.714   0.915   3.624 -0.0035  0.5238  0.0330
    1_EC     O3 1521   3.684   1.028   3.554 -0.8132  0.0998 -0.3228
    1_EC     O4 1522   3.783   0.837   3.537 -0.0372  0.4080  0.1102
    1_EC     C5 1523   3.640   0.971   3.431 -0.3703 -0.6641 -0.1295
    1_EC     C6 1524   3.723   0.845   3.408  0.0971 -0.3814 -0.0086
    1_EC     O1 1525   3.923   3.495   2.479  0.3649 -0.2604  0.1793
    1_EC     C2 1526   3.840   3.565   2.429  0.3636 -0.2831  0.1497
    1_EC     O3 1527   3.794   3.682   2.480 -0.0996 -0.3663 -0.0664
    1_EC     O4 1528   3.743   3.525   2.343  0.0904 -0.0223  0.3352
    1_EC     C5 1529   3.686   3.735   2.403  0.6133  0.6777 -0.3845
    1_EC     C6 1530   3.694   3.644   2.281 -0.1136 -0.1804  0.1868
    1_EC     O1 1531   3.808   2.463   3.106  0.2176  0.1383  0.0433
    1_EC     C2 1532   3.822   2.461   2.987  0.1482  0.4315  0.0293
    1_EC     O3 1533   3.802   2.568   2.905  0.2116  0.3800 -0.0531
    1_EC     O4 1534   3.773   2.359   2.911 -0.0680  0.2909  0.3540
    1_EC     C5 1535   3.836   2.528   2.772 -0.1537  0.1472 -0.0774
    1_EC     C6 1536   3.814   2.377   2.775 -0.6880  0.2299  0.1577
    1_EC     O1 1537   3.677   0.098   3.513 -0.2670  0.0069 -0.7469
    1_EC     C2 1538   3.716   0.119   3.402  0.3184 -0.3380 -0.6120
    1_EC     O3 1539   3.675   0.059   3.287  0.2345 -0.2723 -0.6167
    1_EC     O4 1540   3.801   0.220   3.370  0.6852 -0.4020  0.1417
    1_EC     C5 1541   3.771   0.086   3.185  0.0270  0.4615 -0.6212
    1_EC     C6 1542   3.797   0.230   3.227  0.3153  0.1741  0.1880
    1_EC     O1 1543   2.591   1.882   0.847 -0.0290  0.4076 -0.2396
    1_EC     C2 1544   2.702   1.835   0.850 -0.1101  0.1943 -0.5170
    1_EC     O3 1545   2.808   1.900   0.796  0.0154  0.4259  0.0021
    1_EC     O4 1546   2.728   1.705   0.824 -0.4928  0.1139 -0.5092
    1_EC     C5 1547   2.924   1.818   0.808 -0.1841  0.1367 -0.0532
    1_EC     C6 1548   2.866   1.686   0.858 -0.3951 -0.1554 -1.0490
    1_EC     O1 1549   2.910   0.356   1.005 -0.5416  0.5680 -0.1081
    1_EC     C2 1550   2.846   0.255   1.003  0.4262 -0.0589  0.1194
    1_EC     O3 1551   2.904   0.135   1.029  0.1431 -0.2316 -0.0367
    1_EC     O4 1552   2.772   0.229   0.892  1.0387  0.0196 -0.3079
    1_EC     C5 1553   2.803   0.037   1.002 -0.3891  0.1876  0.4213
    1_EC     C6 1554   2.699   0.108   0.917  0.0587  0.7326  0.3227
    1_EC     O1 1555   0.069   1.677   1.020 -0.2975 -0.8469  0.1556
    1_EC     C2 1556   0.116   1.675   0.909 -0.4404  0.0370  0.0724
    1_EC     O3 1557   0.246   1.650   0.878 -0.5135 -0.2427 -0.0126
    1_EC     O4 1558   0.046   1.620   0.806 -0.0121  0.3646 -0.3983
    1_EC     C5 1559   0.259   1.664   0.736  0.1346  0.1506  0.0798
    1_EC     C6 1560   0.118   1.641   0.685  0.2485  0.2262 -0.2690
    1_EC     O1 1561   1.623   0.127   2.173  0.3563 -0.1636 -0.0606
    1_EC     C2 1562   1.714   0.107   2.097 -0.1015 -0.2231 -0.6026
    1_EC     O3 1563   1.754  -0.021   2.074  0.2157 -0.2169 -0.1055
    1_EC     O4 1564   1.760   0.188   1.999  0.6223  0.5673  0.3721
    1_EC     C5 1565   1.880  -0.012   2.009  0.1381  0.2229 -0.1932
    1_EC     C6 1566   1.860   0.115   1.927  0.2687  0.4015  0.0494
    1_EC     O1 1567   3.096   0.634   1.978  0.3718 -0.7373  0.0315
    1_EC     C2 1568   3.041   0.537   1.933  0.1591 -0.1894 -0.9052
    1_EC     O3 1569   2.906   0.517   1.931  0.1496 -0.2293 -0.0326
    1_EC     O4 1570   3.099   0.447   1.849  0.5362 -0.3032 -0.5253
    1_EC     C5 1571   2.888   0.378   1.901 -0.1220 -0.0784 -0.5772
    1_EC     C6 1572   2.993   0.370   1.792  0.0587  0.2795 -0.4323
    1_EC     O1 1573   1.647   1.965   2.233 -0.1544 -0.3061  0.0145
    1_EC     C2 1574   1.695   1.901   2.143  0.3003 -0.0045  0.0402
    1_EC     O3 1575   1.618   1.808   2.081 -0.0493  0.2197  0.1292
    1_EC     O4 1576   1.756   1.963   2.039 -0.1718  0.3885 -0.0098
    1_EC     C5 1577   1.688   1.754   1.968  0.4035  0.4769  0.2842
    1_EC     C6 1578   1.800   1.855   1.955 -0.0080  0.8393 -0.5094
    1_EC     O1 1579   0.445   0.595   3.941 -0.1135  0.1267 -0.4217
    1_EC     C2 1580   0.468   0.680   3.860 -0.3150  0.1365 -0.4681
    1_EC     O3 1581   0.412   0.680   3.736 -0.5784  0.3589 -0.3504
    1_EC     O4 1582   0.562   0.777   3.879  0.2147 -0.4242 -0.2233
    1_EC     C5 1583   0.443   0.809   3.681  0.3328  0.2478 -0.1188
    1_EC     C6 1584   0.545   0.873   3.774 -0.2891  0.3118  0.5279
    1_EC     O1 1585   2.728   1.208   2.763  0.2098 -0.5552 -0.1196
    1_EC     C2 1586   2.844   1.216   2.794  0.2280  0.6017 -0.4265
    1_EC     O3 1587   2.880   1.192   2.923  0.0188  0.3410 -0.4157
    1_EC     O4 1588   2.921   1.324   2.765  0.3817  0.6705  0.2237
    1_EC     C5 1589   3.022   1.202   2.936 -0.0355  0.2096  0.3855
    1_EC     C6 1590   3.051   1.288   2.813  0.1755 -0.3259  0.0564
    1_EC     O1 1591   3.420   0.040   3.082  0.0737  0.4751 -0.0114
    1_EC     C2 1592   3.337  -0.036   3.124  0.1851  0.0763 -0.5017
    1_EC     O3 1593   3.310  -0.048   3.257  0.0341  0.3221 -0.5089
    1_EC     O4 1594   3.290  -0.150   3.066 -0.6714  0.0700  0.1779
    1_EC     C5 1595   3.184  -0.113   3.272  0.3241 -0.1111  0.0914
    1_EC     C6 1596   3.171  -0.183   3.138 -0.4926 -0.3489  0.2872
    1_EC     O1 1597   2.473   2.144   0.428 -0.0580 -0.6585  0.1801
    1_EC     C2 1598   2.360   2.156   0.466  0.0019 -0.2781  0.2468
    1_EC     O3 1599   2.290   2.058   0.530  0.5141 -0.1271  1.0554
    1_EC     O4 1600   2.314   2.276   0.511 -0.4202 -0.4181  0.1986
    1_EC     C5 1601   2.158   2.109   0.553  0.3057 -0.3181  0.3166
    1_EC     C6 1602   2.184   2.258   0.567 -0.7225 -0.0630 -0.3749
    1_EC     O1 1603   2.530   3.169   0.228  0.0222  0.0017  0.3614
    1_EC     C2 1604   2.480   3.125   0.328 -0.3292  0.3547  0.3448
    1_EC     O3 1605   2.345   3.109   0.343 -0.2822  0.0086  0.4098
    1_EC     O4 1606   2.531   3.140   0.453 -0.1032 -0.0957  0.3066
    1_EC     C5 1607   2.321   3.056   0.473 -0.6376 -0.0484  0.3200
    1_EC     C6 1608   2.460   3.046   0.534 -0.5758  0.1827  0.2184
    1_EC     O1 1609   3.931   3.899   1.100 -1.1986  0.5378 -0.0887
    1_EC     C2 1610   3.890   3.797   1.052 -0.1839  0.0075  0.1509
    1_EC     O3 1611   3.822   3.803   0.934 -0.2436  0.4338  0.2073
    1_EC     O4 1612   3.973   3.689   1.041 -0.6085 -0.3033 -0.0118
    1_EC     C5 1613   3.777   3.668   0.920 -0.1214  0.3994  0.1506
    1_EC     C6 1614   3.898   3.590   0.970 -0.1639 -0.1905 -0.6490
    1_EC     O1 1615   2.230   1.298   3.025  0.8035 -0.2542 -0.1377
    1_EC     C2 1616   2.264   1.244   2.923  0.1286 -0.0601 -0.4723
    1_EC     O3 1617   2.177   1.160   2.861  0.4364 -0.8487  0.1475
    1_EC     O4 1618   2.386   1.190   2.899  0.2760 -0.0247  0.1706
    1_EC     C5 1619   2.230   1.144   2.729  0.3055  0.3204 -0.0538
    1_EC     C6 1620   2.379   1.150   2.762  0.2662 -0.3108  0.2537
    1_EC     O1 1621   1.740   1.394   0.929 -0.0706  0.1689  0.0222
    1_EC     C2 1622   1.811   1.467   0.864 -0.2497  0.0280 -0.3314
    1_EC     O3 1623   1.753   1.535   0.762 -0.2931  0.3067 -0.1228
    1_EC     O4 1624   1.925   1.417   0.810  0.4765  0.8248  0.4560
    1_EC     C5 1625   1.857   1.607   0.695 -0.0928 -0.2807 -0.4514
    1_EC     C6 1626   1.979   1.525   0.733  0.3350  0.5255 -0.0582
    1_EC     O1 1627   2.622   0.114   1.304  0.1558  0.3611 -0.7611
    1_EC     C2 1628   2.510   0.069   1.304  0.1377  0.4058 -0.4483
    1_EC     O3 1629   2.443   0.028   1.194  0.1992  0.2959 -0.4446
    1_EC     O4 1630   2.415   0.118   1.388 -0.1385  0.1543 -0.6157
    1_EC     C5 1631   2.325  -0.037   1.241  0.2509  0.2603 -0.3641
    1_EC     C6 1632   2.293   0.047   1.364  0.0383 -0.3799  0.0238
    1_EC     O1 1633   2.731   3.616   3.847 -0.1752  0.1154  0.4605
    1_EC     C2 1634   2.633   3.556   3.881 -0.5046  0.2133 -0.2981
    1_EC     O3 1635   2.586   3.569   4.007  0.2495 -0.1838  0.0292
    1_EC     O4 1636   2.613   3.426   3.844 -0.2244  0.1266 -0.1452
    1_EC     C5 1637   2.467   3.491   4.014 -0.0545  0.2589 -0.1897
    1_EC     C6 1638   2.486   3.392   3.900 -0.1271  0.0131  0.0096
    1_EC     O1 1639   3.583   1.830   1.518 -0.7656 -0.0748 -0.0339
    1_EC     C2 1640   3.592   1.726   1.576  0.2465 -0.4550 -0.8373
    1_EC     O3 1641   3.697   1.677   1.647 -0.5189  0.0353  0.6861
    1_EC     O4 1642   3.489   1.670   1.645  0.3878 -0.0657 -0.3034
    1_EC     C5 1643   3.677   1.535   1.645  0.3470 -0.0885 -0.3462
    1_EC     C6 1644   3.525   1.532   1.638  0.3485 -0.0720 -0.3870
    1_EC     O1 1645   2.597   3.741   1.619  0.0093  0.1979 -0.0039
    1_EC     C2 1646   2.486   3.701   1.599  0.0574  0.1454 -0.1618
    1_EC     O3 1647   2.423   3.699   1.478 -0.6343 -0.0310  0.1961
    1_EC     O4 1648   2.382   3.731   1.681 -0.4713  0.0769 -0.7917
    1_EC     C5 1649   2.296   3.633   1.487 -0.7657  0.2078  0.0989
    1_EC     C6 1650   2.259   3.689   1.624 -0.9083  0.1310  0.0907
    1_EC     O1 1651   0.811   3.899   3.690 -0.4996  0.0865  0.5090
    1_EC     C2 1652   0.780   3.857   3.583  0.4230  0.0360  0.2560
    1_EC     O3 1653   0.814   3.734   3.533 -0.2386 -0.0046 -0.1060
    1_EC     O4 1654   0.705   3.923   3.490 -0.8324 -0.4017  0.9378
    1_EC     C5 1655   0.759   3.717   3.402  0.1182 -0.9154 -0.1386
    1_EC     C6 1656   0.646   3.817   3.415  0.3837 -0.6723  0.3289
    1_EC     O1 1657   1.862   2.348   2.504  0.2260  0.5091  0.5166
    1_EC     C2 1658   1.743   2.341   2.517  0.1282  0.7223 -0.2160
    1_EC     O3 1659   1.653   2.357   2.417  0.0409  0.5249 -0.1676
    1_EC     O4 1660   1.682   2.411   2.616  0.0320 -0.0871  0.2961
    1_EC     C5 1661   1.525   2.323   2.471  0.1609  0.5934  0.1568
    1_EC     C6 1662   1.547   2.361   2.617 -0.0484  0.1295  0.3112
    1_EC     O1 1663   0.113   2.156   2.676 -0.2225  0.4918 -0.7429
    1_EC     C2 1664   0.197   2.240   2.661  0.0268  0.2540 -0.7002
    1_EC     O3 1665   0.165   2.372   2.669 -0.3266  0.1039  0.4170
    1_EC     O4 1666   0.323   2.232   2.711 -0.2293 -0.2555 -0.1307
    1_EC     C5 1667   0.284   2.440   2.628 -0.6186  0.2308 -0.2306
    1_EC     C6 1668   0.395   2.353   2.684 -0.8508  0.1797  0.1521
    1_EC     O1 1669   2.362   1.842   0.285  0.8103  0.0547 -0.6670
    1_EC     C2 1670   2.308   1.913   0.206 -0.0566 -0.0746 -0.2085
    1_EC     O3 1671   2.217   2.007   0.244  0.1213  0.1934 -0.4428
    1_EC     O4 1672   2.349   1.939   0.079 -0.2525 -0.2015 -0.2986
    1_EC     C5 1673   2.159   2.063   0.126 -0.5979 -0.0822 -0.2238
    1_EC     C6 1674   2.236   1.996   0.013 -0.4084 -0.1988 -0.0265
    1_EC     O1 1675   0.907   2.196   2.700  0.0279 -0.2306 -0.4313
    1_EC     C2 1676   0.806   2.153   2.747  0.1049  0.2639  0.1901
    1_EC     O3 1677   0.762   2.200   2.867 -0.2094  0.4536  0.0022
    1_EC     O4 1678   0.756   2.027   2.732  0.9446 -0.1254  0.5994
    1_EC     C5 1679   0.686   2.098   2.933  0.2038  0.1483  0.0118
    1_EC     C6 1680   0.639   2.018   2.813  0.5052  0.0112 -0.0165
    1_EC     O1 1681   0.840   1.676   0.576  0.2308  0.4855  0.0729
    1_EC     C2 1682   0.898   1.613   0.660 -0.3974  0.1168  0.2440
    1_EC     O3 1683   0.853   1.495   0.710 -0.2213 -0.0213  0.0750
    1_EC     O4 1684   0.964   1.672   0.764 -0.9108  0.0770  0.5934
    1_EC     C5 1685   0.967   1.442   0.779 -0.0131  0.1403 -0.1390
    1_EC     C6 1686   1.033   1.568   0.833 -0.2577  0.1732  0.0905
    1_EC     O1 1687   1.486   2.764   3.205  0.7256 -0.2584 -0.7125
    1_EC     C2 1688   1.588   2.736   3.262  0.1554  0.1070  0.5189
    1_EC     O3 1689   1.694   2.685   3.195 -0.2558  0.0364 -0.0882
    1_EC     O4 1690   1.593   2.669   3.380 -0.2035 -0.2455  0.3363
    1_EC     C5 1691   1.799   2.670   3.291 -0.0486  0.5415 -0.2321
    1_EC     C6 1692   1.728   2.657   3.424 -0.0115 -0.4797 -0.3077
    1_EC     O1 1693   3.198   0.724   0.077 -0.2117  0.0442 -0.0856
    1_EC     C2 1694   3.249   0.641   0.008  0.2929  0.1642  0.1364
    1_EC     O3 1695   3.192   0.614  -0.112 -0.5076 -0.3282  0.6172
    1_EC     O4 1696   3.384   0.622  -0.003  0.2080 -0.2562 -0.2172
    1_EC     C5 1697   3.276   0.512  -0.167 -0.4548  0.0511 -0.0184
    1_EC     C6 1698   3.413   0.570  -0.133 -0.2030 -0.3988 -0.2526
    1_EC     O1 1699   1.008   3.973   3.363  0.0440  0.1541 -0.0675
    1_EC     C2 1700   1.124   3.977   3.333 -0.0042  0.0402 -0.2697
    1_EC     O3 1701   1.161   3.958   3.203 -0.3172 -0.3622 -0.3014
    1_EC     O4 1702   1.227   4.049   3.383  0.0739 -0.0362 -0.3201
    1_EC     C5 1703   1.292   3.902   3.212 -0.0978  0.1354 -0.4171
    1_EC     C6 1704   1.339   3.972   3.339  0.0809  0.0360 -0.4288
    1_EC     O1 1705   1.288   3.402   2.598 -0.3257 -0.1008 -0.1172
    1_EC     C2 1706   1.288   3.287   2.635 -0.4991 -0.2007 -0.4238
    1_EC     O3 1707   1.392   3.200   2.638 -0.1121  0.2813  0.7672
    1_EC     O4 1708   1.222   3.258   2.750  0.0562  0.2624  0.0138
    1_EC     C5 1709   1.326   3.075   2.664 -0.5511  0.2610 -0.3723
    1_EC     C6 1710   1.208   3.116   2.750 -0.2734  0.2952 -0.0054
    1_EC     O1 1711   2.822   0.983   3.922  0.7680  0.7808  0.3040
    1_EC     C2 1712   2.783   0.941   3.817 -0.0436  0.6845  0.6347
    1_EC     O3 1713   2.826   0.993   3.699  0.0334 -0.6329  0.0616
    1_EC     O4 1714   2.653   0.913   3.788  0.3422 -0.4046 -0.1292
    1_EC     C5 1715   2.766   0.924   3.589 -0.5032 -0.3155  0.1521
    1_EC     C6 1716   2.642   0.865   3.654 -0.7575 -0.1239 -0.1530
    1_EC     O1 1717   3.895   0.211   0.041 -0.1316  0.7317  0.0600
    1_EC     C2 1718   3.996   0.275   0.026  0.1909  0.2289  0.0818
    1_EC     O3 1719   4.109   0.228   0.086  0.4342 -0.0183 -0.5594
    1_EC     O4 1720   4.040   0.309  -0.099 -0.0345 -0.1019 -0.0895
    1_EC     C5 1721   4.220   0.307   0.042  0.6150 -0.1984 -0.4278
    1_EC     C6 1722   4.171   0.364  -0.090 -0.0308 -0.1008 -0.1535
    1_EC     O1 1723   3.360   1.869   1.098 -0.2871  0.3784 -0.4097
    1_EC     C2 1724   3.392   1.933   1.195  0.1584 -0.6446  0.1350
    1_EC     O3 1725   3.508   2.004   1.199  0.1617 -0.6620  0.3368
    1_EC     O4 1726   3.346   1.911   1.321  0.2674  0.2207  0.3268
    1_EC     C5 1727   3.478   2.099   1.302  0.1804 -0.3920  0.0924
    1_EC     C6 1728   3.367   2.038   1.385  0.3632  0.0383  0.6612
    1_EC     O1 1729   2.022   2.895   2.684  0.2318 -0.1461  0.0173
    1_EC     C2 1730   2.011   2.783   2.643  0.4668 -0.1162 -0.1281
    1_EC     O3 1731   2.035   2.689   2.738  0.6089  0.0898  0.0408
    1_EC     O4 1732   2.069   2.737   2.529  0.3062  0.3355 -0.3940
    1_EC     C5 1733   2.013   2.568   2.664  0.0575 -0.0125  0.3671
    1_EC     C6 1734   2.054   2.595   2.520 -0.3530  0.3571  0.3186
    1_EC     O1 1735   3.482   0.605   0.494  0.4331 -0.0406 -0.5078
    1_EC     C2 1736   3.509   0.691   0.573 -0.4992 -0.4249  0.2480
    1_EC     O3 1737   3.581   0.803   0.548 -0.3392 -0.4931  0.4054
    1_EC     O4 1738   3.444   0.715   0.690 -0.1299 -0.4806  0.4645
    1_EC     C5 1739   3.579   0.895   0.658 -0.4062  0.2605 -0.2155
    1_EC     C6 1740   3.519   0.809   0.768 -0.3407  0.2426 -0.1936
    1DMC     O1 1741   0.219   0.659   0.573  0.2748  0.1096  0.0185
    1DMC     C2 1742   0.177   0.638   0.684  0.4874 -0.5119 -0.0108
    1DMC     O3 1743   0.117   0.521   0.713  0.0261 -0.3076 -0.1258
    1DMC     O4 1744   0.213   0.705   0.794 -0.0945 -0.1533 -0.0305
    1DMC     C5 1745   0.143   0.417   0.621 -0.0765 -0.5869  0.1609
    1DMC     C6 1746   0.284   0.824   0.769 -0.3309 -0.0783 -0.3386
    1DMC     O1 1747   1.606   3.421   0.878 -0.1311  0.2379 -0.2222
    1DMC     C2 1748   1.676   3.505   0.927 -0.0486  0.1503 -0.1904
    1DMC     O3 1749   1.728   3.612   0.865  0.1123 -0.0600 -0.4187
    1DMC     O4 1750   1.708   3.506   1.058  0.2482 -0.5164 -0.2540
    1DMC     C5 1751   1.701   3.627   0.727  0.2793  0.3693 -0.4062
    1DMC     C6 1752   1.652   3.398   1.129 -0.4200 -0.1763 -0.2563
    1DMC     O1 1753   0.907   0.539   1.681  0.1995 -0.4616  0.4517
    1DMC     C2 1754   0.968   0.441   1.648 -0.5528 -0.6554 -0.3963
    1DMC     O3 1755   1.028   0.353   1.731 -0.3211  0.2259  0.3814
    1DMC     O4 1756   1.040   0.439   1.535 -0.1758 -0.1984 -0.1654
    1DMC     C5 1757   1.012   0.369   1.870  0.7436 -0.0797  0.5419
    1DMC     C6 1758   1.050   0.564   1.470  0.8371  0.0169  0.3888
    1DMC     O1 1759   3.918   3.913   2.234 -0.1159  0.1397  0.7065
    1DMC     C2 1760   3.958   4.025   2.249 -0.0389  0.2057  0.0259
    1DMC     O3 1761   4.030   4.095   2.159  0.1268  0.2779  0.2147
    1DMC     O4 1762   3.960   4.099   2.361  0.3929 -0.2559  0.3253
    1DMC     C5 1763   4.065   4.027   2.041 -0.4486 -0.2274  0.3317
    1DMC     C6 1764   3.858   4.066   2.452  0.0934 -0.0883  0.0488
    1DMC     O1 1765   3.829   3.797   2.979 -0.6012 -0.4168  0.0893
    1DMC     C2 1766   3.857   3.818   2.864  0.4172  0.5377  0.4949
    1DMC     O3 1767   3.794   3.907   2.785  0.3093  0.2076  0.2103
    1DMC     O4 1768   3.959   3.759   2.800  0.3026  0.2248  0.5979
    1DMC     C5 1769   3.678   3.960   2.843 -0.1497  0.0864 -0.5740
    1DMC     C6 1770   3.995   3.637   2.859  0.1144 -0.0485  0.1574
    1DMC     O1 1771   2.324   0.262   1.070 -0.1762 -0.0740  0.2249
    1DMC     C2 1772   2.332   0.313   0.962 -0.2450 -0.2084  0.1556
    1DMC     O3 1773   2.236   0.320   0.868  0.2935 -0.2530 -0.4068
    1DMC     O4 1774   2.426   0.405   0.932 -0.3778 -0.0784  0.1368
    1DMC     C5 1775   2.105   0.319   0.921  0.4515  0.2454  0.0075
    1DMC     C6 1776   2.515   0.441   1.035 -0.2496 -0.0172  0.0031
    1DMC     O1 1777   1.016   1.741   2.226 -0.5880 -0.0949 -0.2880
    1DMC     C2 1778   0.905   1.786   2.219 -0.4102  0.3730 -0.1745
    1DMC     O3 1779   0.858   1.877   2.306 -0.3079  0.5626 -0.3172
    1DMC     O4 1780   0.816   1.759   2.122 -0.1824  0.1432 -0.3226
    1DMC     C5 1781   0.947   1.889   2.415 -0.1419 -0.1784 -0.3611
    1DMC     C6 1782   0.870   1.660   2.037  0.1472 -0.3815  0.4856
    1DMC     O1 1783   1.670   3.523   1.717 -0.0304  0.2245  0.1643
    1DMC     C2 1784   1.608   3.537   1.819  0.0328 -0.2342  0.2686
    1DMC     O3 1785   1.587   3.647   1.893  0.1857  0.2118 -0.3459
    1DMC     O4 1786   1.549   3.433   1.880 -0.2204 -0.3289 -0.1275
    1DMC     C5 1787   1.662   3.756   1.842 -0.4336  0.5886 -0.4694
    1DMC     C6 1788   1.578   3.311   1.816  0.4881 -0.4191  0.3531
    1DMC     O1 1789   0.401   0.266   1.712  0.1840  0.1994 -0.1033
    1DMC     C2 1790   0.312   0.266   1.632 -0.0202 -0.6688  0.1214
    1DMC     O3 1791   0.307   0.191   1.520 -0.0472  0.4279 -0.6291
    1DMC     O4 1792   0.200   0.340   1.638  0.4759  0.1606 -0.6159
    1DMC     C5 1793   0.418   0.107   1.498 -0.3275 -0.1703  0.1742
    1DMC     C6 1794   0.213   0.443   1.734 -0.3996 -0.4703  0.2018
    1DMC     O1 1795   2.299   3.878   3.670  0.1389 -0.2580  0.0505
    1DMC     C2 1796   2.321   3.761   3.683  0.3261 -0.2218  0.0666
    1DMC     O3 1797   2.225   3.676   3.724  0.3487 -0.2453  0.0704
    1DMC     O4 1798   2.426   3.690   3.639  0.0965 -0.3160 -0.3321
    1DMC     C5 1799   2.101   3.741   3.711  0.4769  0.1160  0.6528
    1DMC     C6 1800   2.519   3.761   3.560  0.2751  0.1438  0.2849
    1DMC     O1 1801   0.339   2.602   1.294  0.2972  0.0014  0.2914
    1DMC     C2 1802   0.408   2.590   1.391  0.2338  0.6392  0.4180
    1DMC     O3 1803   0.367   2.527   1.503 -0.0092  0.3361  0.1581
    1DMC     O4 1804   0.514   2.670   1.410  0.5730  0.1614  0.5433
    1DMC     C5 1805   0.227   2.512   1.502 -0.0325  0.5496 -0.6836
    1DMC     C6 1806   0.549   2.738   1.292  0.3691 -0.2943  0.2168
    1DMC     O1 1807   1.419   2.736   3.747 -0.1926 -0.2306  0.0279
    1DMC     C2 1808   1.346   2.825   3.713 -0.3692 -0.3643  0.0490
    1DMC     O3 1809   1.280   2.912   3.791 -0.1104  0.1085 -0.2546
    1DMC     O4 1810   1.309   2.853   3.587  0.2893 -0.3761 -0.1527
    1DMC     C5 1811   1.326   2.919   3.924  0.7388  0.2128 -0.5454
    1DMC     C6 1812   1.359   2.752   3.502  0.2589 -0.2453 -0.3265
    1DMC     O1 1813   3.142   0.215   0.258  0.1557  0.0900 -0.1044
    1DMC     C2 1814   3.180   0.274   0.161  0.1209 -0.0647 -0.2115
    1DMC     O3 1815   3.222   0.401   0.170  0.1561 -0.1282  0.5466
    1DMC     O4 1816   3.181   0.234   0.032 -0.2726  0.0206 -0.2423
    1DMC     C5 1817   3.227   0.463   0.297 -0.0410  0.2330  0.3822
    1DMC     C6 1818   3.099   0.123   0.001 -0.2253  0.0560 -0.4959
    1DMC     O1 1819   0.192   2.437   0.970 -0.3170 -0.0998 -0.0872
    1DMC     C2 1820   0.273   2.362   0.922 -0.1365 -0.3258  0.5677
    1DMC     O3 1821   0.406   2.377   0.929 -0.1652  0.2300  0.0101
    1DMC     O4 1822   0.242   2.271   0.829 -0.1017  0.3742 -0.1425
    1DMC     C5 1823   0.446   2.481   1.015 -0.3965 -0.4317  0.9365
    1DMC     C6 1824   0.106   2.283   0.796 -0.1243  0.7110  0.0779
    1DMC     O1 1825   2.522   2.535   1.671 -0.3721  0.5382  0.2838
    1DMC     C2 1826   2.622   2.601   1.660 -0.3383  0.4204 -0.1012
    1DMC     O3 1827   2.642   2.683   1.555 -0.1833  0.2832 -0.1783
    1DMC     O4 1828   2.718   2.611   1.753 -0.0437  0.5470 -0.4191
    1DMC     C5 1829   2.535   2.686   1.463 -0.1714  0.4293 -0.1869
    1DMC     C6 1830   2.715   2.536   1.872  0.0328  0.4667 -0.4678
    1DMC     O1 1831   0.133   3.666   1.973 -0.1061 -0.2484  0.2002
    1DMC     C2 1832   0.114   3.564   2.032 -0.3636 -0.1005  0.3725
    1DMC     O3 1833   0.203   3.494   2.104  0.3283  0.2222 -0.1612
    1DMC     O4 1834  -0.008   3.511   2.052 -0.1145 -0.6357  0.4873
    1DMC     C5 1835   0.324   3.562   2.127  0.5172 -0.1644 -0.0036
    1DMC     C6 1836  -0.112   3.578   1.985  0.0256 -0.7168  0.1872
    1DMC     O1 1837   2.041   1.578   2.590 -0.1641 -0.2054 -0.0288
    1DMC     C2 1838   2.090   1.487   2.651  0.1596 -0.2061 -0.2891
    1DMC     O3 1839   2.217   1.446   2.636  0.4818  0.5322  0.3898
    1DMC     O4 1840   2.029   1.418   2.749 -0.1591  0.3386 -0.1010
    1DMC     C5 1841   2.274   1.520   2.530  0.1973  0.1557 -0.0311
    1DMC     C6 1842   1.918   1.494   2.791 -0.1751  0.2387  0.0360
    1DMC     O1 1843   3.402   2.117   3.311 -0.2367 -0.0142  0.2411
    1DMC     C2 1844   3.366   2.213   3.250  0.4504  0.3499  0.4015
    1DMC     O3 1845   3.434   2.269   3.148 -0.1522  0.0464 -0.1788
    1DMC     O4 1846   3.267   2.299   3.282  0.3376  0.4060 -0.0898
    1DMC     C5 1847   3.550   2.197   3.113 -0.3740 -0.2731 -0.2628
    1DMC     C6 1848   3.211   2.284   3.410 -0.0803  0.3027 -0.2807
    1DMC     O1 1849   2.551   3.711   1.201  0.0486  0.2256  0.5994
    1DMC     C2 1850   2.586   3.603   1.241 -0.2772  0.0034  0.2990
    1DMC     O3 1851   2.535   3.488   1.195 -0.2680 -0.0384  0.3926
    1DMC     O4 1852   2.702   3.590   1.308  0.2992 -0.3629 -0.7508
    1DMC     C5 1853   2.428   3.511   1.105 -0.3083 -0.2526  0.3846
    1DMC     C6 1854   2.748   3.722   1.325 -0.5327 -0.1942  0.3032
    1DMC     O1 1855   3.873   1.932   3.227  0.2628 -0.3757 -0.0238
    1DMC     C2 1856   3.944   1.865   3.156  0.1843 -0.3119 -0.1618
    1DMC     O3 1857   3.977   1.893   3.029  0.2919  0.1044 -0.0445
    1DMC     O4 1858   4.033   1.778   3.205 -0.1635 -0.5917 -0.0193
    1DMC     C5 1859   3.915   2.010   2.981  0.2775 -0.0089 -0.3062
    1DMC     C6 1860   4.026   1.758   3.344  0.2002 -0.2033  0.0589
    1DMC     O1 1861   0.268   3.269   1.634  0.4259  0.0107  0.1638
    1DMC     C2 1862   0.258   3.283   1.753  0.1146  0.5636  0.0753
    1DMC     O3 1863   0.145   3.284   1.826 -0.0380 -0.2459 -0.1402
    1DMC     O4 1864   0.360   3.251   1.834 -0.2676 -0.0695  0.3083
    1DMC     C5 1865   0.038   3.282   1.735  0.1444  0.1571 -0.3650
    1DMC     C6 1866   0.471   3.200   1.764 -0.0844  0.2119  0.3909
    1DMC     O1 1867   2.775   2.557   3.347  0.2508  0.3871  0.2359
    1DMC     C2 1868   2.844   2.577   3.251  0.1108 -0.2507 -0.0002
    1DMC     O3 1869   2.978   2.587   3.257  0.0929 -0.0865  0.1308
    1DMC     O4 1870   2.803   2.645   3.143  0.2241  0.2870  0.2903
    1DMC     C5 1871   3.024   2.558   3.387 -0.1409  0.0913  0.2537
    1DMC     C6 1872   2.673   2.696   3.159  0.0653  0.1996 -0.6533
    1DMC     O1 1873   2.775   1.672   2.181 -0.4412  0.6892 -0.1688
    1DMC     C2 1874   2.795   1.706   2.294  0.1447 -0.3552  0.0555
    1DMC     O3 1875   2.726   1.802   2.358  0.1146 -0.1471 -0.2878
    1DMC     O4 1876   2.919   1.711   2.347  0.0947  0.5337  0.1089
    1DMC     C5 1877   2.606   1.844   2.297 -0.0452 -0.1337  0.0319
    1DMC     C6 1878   3.018   1.665   2.259 -0.1451 -0.5624  0.3904
    1DMC     O1 1879   3.006   1.947   3.695  0.0510 -0.0155  0.0998
    1DMC     C2 1880   3.123   1.971   3.686  0.0753 -0.3317 -0.4356
    1DMC     O3 1881   3.188   2.080   3.729  0.2526 -0.4712 -0.3502
    1DMC     O4 1882   3.209   1.871   3.660  0.4839 -0.2262  0.4932
    1DMC     C5 1883   3.118   2.156   3.824  0.2978 -0.3810 -0.3893
    1DMC     C6 1884   3.133   1.754   3.642  0.5778 -0.2707  0.3838
    1DMC     O1 1885   1.232   2.412   2.480  0.4536  0.0616 -0.2499
    1DMC     C2 1886   1.123   2.422   2.431  0.3198 -0.0204  0.0289
    1DMC     O3 1887   1.035   2.329   2.389 -0.1603  0.4278  0.0238
    1DMC     O4 1888   1.064   2.536   2.392  0.3973  0.0170  0.0225
    1DMC     C5 1889   1.082   2.197   2.407  0.3030  0.6012  0.1068
    1DMC     C6 1890   1.155   2.643   2.408  0.4355 -0.0007 -0.0730
    1DMC     O1 1891   0.350   1.093   0.974 -0.1799  0.2526 -0.4394
    1DMC     C2 1892   0.266   1.147   1.041  0.2023  0.3938 -0.0717
    1DMC     O3 1893   0.271   1.136   1.175 -0.2039  0.0587 -0.0826
    1DMC     O4 1894   0.186   1.248   1.001 -0.0770  0.1358 -0.1667
    1DMC     C5 1895   0.365   1.049   1.233 -0.3745 -0.1949 -0.1868
    1DMC     C6 1896   0.199   1.300   0.870 -0.3912  0.1793 -0.1801
    1DMC     O1 1897   1.758   3.031   3.386 -0.2059  0.3684  0.2764
    1DMC     C2 1898   1.693   3.132   3.371 -0.0051  0.5262  0.4777
    1DMC     O3 1899   1.723   3.226   3.280  0.3708 -0.2418 -0.2018
    1DMC     O4 1900   1.599   3.180   3.454 -0.1772  0.5611  0.2635
    1DMC     C5 1901   1.850   3.193   3.228  0.4156  0.1714 -0.3582
    1DMC     C6 1902   1.558   3.084   3.549  0.1252 -0.0434 -0.2078
    1DMC     O1 1903   3.784   2.448   0.967 -0.6946  0.2976  0.5025
    1DMC     C2 1904   3.759   2.383   1.065 -0.4317  0.0949  0.4379
    1DMC     O3 1905   3.816   2.407   1.185 -0.0463  0.2641  0.2222
    1DMC     O4 1906   3.654   2.300   1.074  0.0376 -0.5631 -0.1306
    1DMC     C5 1907   3.919   2.503   1.182 -0.1906  0.4104 -0.0832
    1DMC     C6 1908   3.590   2.278   0.951 -0.2311  0.1216 -0.1132
    1DMC     O1 1909   0.706   3.118   0.010 -0.6541 -0.3763 -0.2287
    1DMC     C2 1910   0.647   3.216  -0.028 -0.0854  0.0726  0.0226
    1DMC     O3 1911   0.554   3.222  -0.126  0.3299 -0.0020 -0.3779
    1DMC     O4 1912   0.673   3.340   0.016 -0.0661  0.1469 -0.1944
    1DMC     C5 1913   0.543   3.097  -0.190  0.8639 -0.0132 -0.4588
    1DMC     C6 1914   0.773   3.354   0.115 -0.2931 -0.0349  0.0640
    1DMC     O1 1915   0.739   3.076   0.871 -0.3008 -0.3278 -0.1767
    1DMC     C2 1916   0.674   3.169   0.830  0.1812  0.3201  0.4848
    1DMC     O3 1917   0.543   3.163   0.801  0.1872  0.0595  0.5047
    1DMC     O4 1918   0.697   3.291   0.879 -0.0289  0.4062  0.3704
    1DMC     C5 1919   0.488   3.034   0.815  0.6102 -0.2239 -0.3841
    1DMC     C6 1920   0.827   3.301   0.934  0.3140 -0.0102 -0.3535
    1DMC     O1 1921   0.408   0.872   1.554 -1.0623 -0.1400  0.1002
    1DMC     C2 1922   0.423   0.778   1.627  0.5897  0.2943  0.3592
    1DMC     O3 1923   0.363   0.773   1.747  0.6814  0.0553  0.3946
    1DMC     O4 1924   0.462   0.653   1.596  0.4042  0.0474  1.1109
    1DMC     C5 1925   0.327   0.907   1.772  0.3209  0.2006 -0.8028
    1DMC     C6 1926   0.535   0.653   1.475 -0.7373 -0.1708  0.4082
    1DMC     O1 1927   0.042   0.571   2.165 -0.4015  0.1666  0.5331
    1DMC     C2 1928   0.123   0.637   2.224  0.3258  0.1720 -0.4538
    1DMC     O3 1929   0.146   0.765   2.189 -0.2150  0.5039  0.3664
    1DMC     O4 1930   0.163   0.616   2.351 -0.7329 -0.0597 -0.1520
    1DMC     C5 1931   0.062   0.784   2.078 -0.3431 -0.0343  0.3671
    1DMC     C6 1932   0.108   0.494   2.397 -0.3044 -0.1379  0.1508
    1DMC     O1 1933   1.720   2.347   3.349 -0.3736  0.4360  0.0509
    1DMC     C2 1934   1.679   2.302   3.453  0.6282 -0.3683  0.1090
    1DMC     O3 1935   1.550   2.278   3.480  0.5547  0.0017  0.0896
    1DMC     O4 1936   1.755   2.303   3.564  0.0116  0.2387  0.5317
    1DMC     C5 1937   1.470   2.275   3.364 -0.3315 -0.1755  0.6998
    1DMC     C6 1938   1.887   2.349   3.543  0.1876 -0.3668  0.3027
    1DMC     O1 1939   0.906   0.512   3.882  0.3872 -0.8474  0.0894
    1DMC     C2 1940   0.963   0.603   3.935 -0.2660 -0.2290 -0.2494
    1DMC     O3 1941   0.915   0.686   4.029  0.3062 -0.2568  0.0758
    1DMC     O4 1942   1.097   0.619   3.931 -0.2890  0.0123 -0.1092
    1DMC     C5 1943   0.780   0.675   4.069  0.3658 -0.2678  0.2750
    1DMC     C6 1944   1.157   0.526   3.843  0.4521 -0.1008  0.5081
    1DMC     O1 1945   2.775   3.605   3.343  0.3742 -0.5340  0.1935
    1DMC     C2 1946   2.848   3.641   3.255 -0.2190  0.0562 -0.0649
    1DMC     O3 1947   2.907   3.555   3.170 -0.2814  0.2287 -0.2857
    1DMC     O4 1948   2.865   3.768   3.215  0.0711 -0.0170 -0.1782
    1DMC     C5 1949   2.877   3.425   3.218  0.8844  0.0422 -0.0295
    1DMC     C6 1950   2.770   3.854   3.274  0.0827 -0.3798  0.3739
    1DMC     O1 1951   3.766   3.686   0.564  0.5283 -0.0939  0.2004
    1DMC     C2 1952   3.662   3.743   0.547  0.4049 -0.4044 -0.0968
    1DMC     O3 1953   3.542   3.683   0.553  0.3333 -0.3324 -0.7625
    1DMC     O4 1954   3.645   3.875   0.566 -0.0928 -0.4171 -0.4498
    1DMC     C5 1955   3.554   3.544   0.575  0.4442 -0.2040  0.0149
    1DMC     C6 1956   3.769   3.942   0.573 -0.3540  0.0338 -0.0439
    1DMC     O1 1957   1.795   3.849   1.280  0.2555  0.1870 -0.3149
    1DMC     C2 1958   1.913   3.844   1.295  0.1996  0.1088  0.0873
    1DMC     O3 1959   1.979   3.832   1.412 -0.0265 -0.3866  0.1677
    1DMC     O4 1960   1.996   3.813   1.194  0.0624  0.4395 -0.1265
    1DMC     C5 1961   1.886   3.839   1.518  0.0412  0.2804  0.1915
    1DMC     C6 1962   1.945   3.804   1.063 -0.0667  0.0962 -0.0530
    1DMC     O1 1963   1.133   1.314   2.122  0.1245  0.0809 -0.0392
    1DMC     C2 1964   1.069   1.214   2.104  0.1874  0.0278  0.0324
    1DMC     O3 1965   1.029   1.138   2.207 -0.3141  0.1070 -0.0968
    1DMC     O4 1966   0.975   1.197   2.009  0.0852 -0.2449  0.1807
    1DMC     C5 1967   1.104   1.150   2.326 -0.4589  0.2702 -0.0236
    1DMC     C6 1968   0.974   1.314   1.929 -0.0285 -0.2553  0.1670
    1DMC     O1 1969   0.941   0.849   2.415 -0.3126 -0.2618  0.3747
    1DMC     C2 1970   0.973   0.885   2.525  0.2060 -0.0481  0.1571
    1DMC     O3 1971   1.088   0.849   2.586  0.1538  0.3616  0.5020
    1DMC     O4 1972   0.930   0.998   2.583 -0.1499 -0.4350  0.6559
    1DMC     C5 1973   1.155   0.737   2.534  0.0136  0.3423  0.3581
    1DMC     C6 1974   0.794   1.015   2.550  0.2597  0.2889 -0.7061
    1DMC     O1 1975   1.727   0.012   2.707  0.6177  0.4070  0.4526
    1DMC     C2 1976   1.792  -0.017   2.610 -0.3786  0.0425 -0.1251
    1DMC     O3 1977   1.891  -0.108   2.612 -0.1641  0.2811  0.7124
    1DMC     O4 1978   1.790   0.050   2.493 -0.4835 -0.4172 -0.3861
    1DMC     C5 1979   1.927  -0.167   2.734 -0.3879  0.1586  0.7181
    1DMC     C6 1980   1.685   0.142   2.476  0.4701  0.8857  0.5271
    1DMC     O1 1981   1.629   2.903   0.653  0.1573 -0.8836 -0.3687
    1DMC     C2 1982   1.730   2.928   0.712 -0.2850 -0.1889  0.1075
    1DMC     O3 1983   1.799   3.044   0.710 -0.0677 -0.3204 -0.1790
    1DMC     O4 1984   1.794   2.840   0.790  0.2423  0.2218  0.1473
    1DMC     C5 1985   1.742   3.136   0.620  0.1805 -0.4109 -0.4270
    1DMC     C6 1986   1.730   2.716   0.770  0.2956  0.2195 -0.0075
    1DMC     O1 1987   0.818   0.706   2.975  0.2247 -0.1507 -0.0466
    1DMC     C2 1988   0.878   0.608   2.940 -0.3399 -0.5287  0.0180
    1DMC     O3 1989   0.960   0.538   3.021  0.2701 -0.2062 -0.3125
    1DMC     O4 1990   0.896   0.581   2.810 -0.2014 -0.0631 -0.0603
    1DMC     C5 1991   0.965   0.582   3.155  0.9727  0.1274 -0.4426
    1DMC     C6 1992   0.788   0.634   2.737 -0.0675  0.2025 -0.0679
    1DMC     O1 1993   1.598   0.960   0.249 -0.3973  0.0306  0.6437
    1DMC     C2 1994   1.565   1.074   0.264 -0.1679  0.1838 -0.0180
    1DMC     O3 1995   1.454   1.106   0.333 -0.3865 -0.0311 -0.2687
    1DMC     O4 1996   1.651   1.175   0.244  0.0286  0.1918  0.8235
    1DMC     C5 1997   1.376   0.990   0.352 -0.3995  0.0188 -0.0135
    1DMC     C6 1998   1.779   1.133   0.201 -0.2422  0.0719  0.1156
    1DMC     O1 1999   0.644   3.675   3.844  0.2457 -0.6217  0.2702
    1DMC     C2 2000   0.569   3.660   3.936 -0.8475  0.4203 -0.4176
    1DMC     O3 2001   0.558   3.745   4.040 -0.1427  0.2656 -0.2101
    1DMC     O4 2002   0.462   3.580   3.936 -0.5433  0.0043 -0.0767
    1DMC     C5 2003   0.668   3.833   4.046 -0.1911  0.2997  0.1962
    1DMC     C6 2004   0.441   3.533   3.804 -0.6024 -0.4433  0.0912
    1DMC     O1 2005   3.865   1.349   3.701 -0.4480 -0.4437 -0.3774
    1DMC     C2 2006   3.803   1.445   3.666  0.1182 -0.2282 -0.8038
    1DMC     O3 2007   3.857   1.568   3.654 -0.3095  0.0706  0.2742
    1DMC     O4 2008   3.677   1.433   3.619 -0.2486 -0.6031  0.2563
    1DMC     C5 2009   3.992   1.547   3.686 -0.2094  0.2849 -0.0086
    1DMC     C6 2010   3.643   1.297   3.630 -0.6078 -0.5308  0.0394
    1DMC     O1 2011   0.685   1.794   1.528 -0.2007  0.0863 -0.7884
    1DMC     C2 2012   0.568   1.823   1.524 -0.1396  0.5549  0.3160
    1DMC     O3 2013   0.471   1.753   1.584 -0.1139  0.0908 -0.1698
    1DMC     O4 2014   0.515   1.890   1.420 -0.2932 -0.0634 -0.0123
    1DMC     C5 2015   0.517   1.641   1.657 -0.0115  0.0642 -0.2764
    1DMC     C6 2016   0.616   1.936   1.333  0.2179  0.0087  0.6109
    1DMC     O1 2017   0.530   0.166   0.554 -0.2697  0.5465 -0.0770
    1DMC     C2 2018   0.552   0.133   0.441  0.3486  0.2040  0.1363
    1DMC     O3 2019   0.508   0.196   0.331  0.0227  0.1708  0.2471
    1DMC     O4 2020   0.642   0.037   0.413  0.4916  0.3072  0.2411
    1DMC     C5 2021   0.436   0.311   0.372 -0.3973 -0.1823  0.5150
    1DMC     C6 2022   0.701   0.003   0.536 -0.1020  0.4959  0.5825
    1DMC     O1 2023   3.938   0.174   1.332 -0.7389  0.2789  0.1756
    1DMC     C2 2024   3.852   0.107   1.382 -0.2358 -0.7231 -0.2728
    1DMC     O3 2025   3.729   0.087   1.334 -0.4287 -0.2561  0.0158
    1DMC     O4 2026   3.847   0.065   1.510  0.1960  0.0690  0.0142
    1DMC     C5 2027   3.708   0.157   1.213 -0.5521  0.0072  0.1873
    1DMC     C6 2028   3.961   0.104   1.583 -0.0094  0.9834 -0.1430
    1DMC     O1 2029   3.258   3.070   3.840  0.5927 -0.9976 -0.0951
    1DMC     C2 2030   3.286   3.153   3.758 -0.2862 -0.2839  0.3074
    1DMC     O3 2031   3.231   3.276   3.757 -0.2750 -0.2763 -0.4091
    1DMC     O4 2032   3.320   3.122   3.631 -0.2081  0.1413  0.2221
    1DMC     C5 2033   3.163   3.285   3.881 -0.2321 -0.1833 -0.3922
    1DMC     C6 2034   3.345   2.983   3.627 -0.3639  0.1182  0.0707
    1DMC     O1 2035   3.542   3.504   0.173 -0.1824 -0.1546  0.2952
    1DMC     C2 2036   3.636   3.445   0.218  0.0828  0.6577  0.8191
    1DMC     O3 2037   3.760   3.494   0.235  0.3872 -0.0943  0.8011
    1DMC     O4 2038   3.622   3.324   0.275  0.4202 -0.1705 -0.8058
    1DMC     C5 2039   3.755   3.633   0.212  0.5499 -0.2428 -0.2094
    1DMC     C6 2040   3.504   3.263   0.227  0.2340 -0.6171  0.1930
    1DMC     O1 2041   3.963   0.816   1.658 -0.1538  0.0152  0.3746
    1DMC     C2 2042   3.914   0.919   1.623  0.0065 -0.0073  0.0755
    1DMC     O3 2043   3.840   0.998   1.703 -0.1951 -0.1516  0.0343
    1DMC     O4 2044   3.944   0.989   1.512 -0.1551 -0.1008 -0.0275
    1DMC     C5 2045   3.804   0.925   1.818  0.0424 -0.1741  0.0958
    1DMC     C6 2046   4.028   0.928   1.418  0.6852  0.7700  0.1446
    1DMC     O1 2047   1.329   2.154   1.838 -0.2138  0.0884 -0.3472
    1DMC     C2 2048   1.304   2.068   1.758 -0.1201 -0.2726  0.0066
    1DMC     O3 2049   1.236   1.953   1.775 -0.5046 -0.0775 -0.1882
    1DMC     O4 2050   1.381   2.053   1.649  0.1091 -0.0244  0.1330
    1DMC     C5 2051   1.190   1.930   1.906  0.4533  0.1351  0.1971
    1DMC     C6 2052   1.470   2.161   1.630 -0.1892  0.1532 -0.2489
    1DMC     O1 2053   2.696   1.350   1.781  0.3166  0.2323  0.2548
    1DMC     C2 2054   2.792   1.285   1.749 -0.0009 -0.2862  0.3402
    1DMC     O3 2055   2.819   1.218   1.636 -0.1710  0.0861  0.0759
    1DMC     O4 2056   2.907   1.309   1.814  0.1197 -0.1908  0.0917
    1DMC     C5 2057   2.704   1.202   1.556 -0.5093  0.6398  0.4451
    1DMC     C6 2058   2.896   1.419   1.902  0.3241 -0.3076  0.2627
    1DMC     O1 2059   1.495   2.643   2.332 -0.4261 -0.0242 -0.2354
    1DMC     C2 2060   1.607   2.655   2.291 -0.3112 -0.2108  0.0247
    1DMC     O3 2061   1.709   2.672   2.376 -0.3213 -0.2865  0.0514
    1DMC     O4 2062   1.637   2.688   2.164 -0.5666 -0.0800 -0.0025
    1DMC     C5 2063   1.652   2.698   2.503  0.9250  0.9141  0.3871
    1DMC     C6 2064   1.522   2.697   2.084 -0.4667 -0.6221 -0.2069
    1DMC     O1 2065   3.127   3.553   1.612  0.0990  0.2164  0.0154
    1DMC     C2 2066   3.066   3.579   1.512  0.0941  0.0866 -0.0153
    1DMC     O3 2067   2.932   3.580   1.510  0.0958 -0.1101 -0.3724
    1DMC     O4 2068   3.117   3.629   1.398  0.1326 -0.7251 -0.3667
    1DMC     C5 2069   2.892   3.523   1.633 -0.0639 -0.5405 -0.6207
    1DMC     C6 2070   3.254   3.661   1.391  0.1055 -0.5741 -0.2335
    1DMC     O1 2071   1.534   2.923   1.026  0.2270 -0.0036 -0.1200
    1DMC     C2 2072   1.559   3.032   0.984 -0.6372  0.4092  0.4105
    1DMC     O3 2073   1.665   3.103   1.026  0.0287 -0.1822 -0.2375
    1DMC     O4 2074   1.470   3.113   0.923 -0.3532  0.0954 -0.4289
    1DMC     C5 2075   1.764   3.027   1.093 -0.2614  0.0283  0.4381
    1DMC     C6 2076   1.346   3.047   0.927 -0.3961  0.1969 -0.0457
    1DMC     O1 2077   0.879   0.829   0.355 -0.2217  0.0441 -0.3526
    1DMC     C2 2078   0.968   0.907   0.338  0.1536 -0.0707  0.9283
    1DMC     O3 2079   1.094   0.872   0.308 -0.0619 -0.1853  0.1253
    1DMC     O4 2080   0.944   1.039   0.326 -0.1861 -0.2079  0.0438
    1DMC     C5 2081   1.115   0.733   0.328 -0.2507 -0.2505 -0.1292
    1DMC     C6 2082   0.805   1.062   0.333 -0.2380 -0.5164  0.0540
    1DMC     O1 2083   1.860   0.535   0.493 -0.2562  0.9390  0.1127
    1DMC     C2 2084   1.963   0.569   0.546 -0.1415  0.1012  0.4521
    1DMC     O3 2085   2.001   0.698   0.545 -0.1272  0.0935  0.1558
    1DMC     O4 2086   2.065   0.484   0.562  0.0664  0.1247 -0.7154
    1DMC     C5 2087   1.913   0.775   0.467  0.0374  0.1603  0.0338
    1DMC     C6 2088   2.029   0.350   0.537 -0.0125  0.0280 -0.0970
    1DMC     O1 2089   1.076   0.880   2.968  0.5238  0.2888  0.1152
    1DMC     C2 2090   1.175   0.940   2.937  0.5654  0.0362 -0.2388
    1DMC     O3 2091   1.289   0.872   2.911  0.7744  0.2694  0.0729
    1DMC     O4 2092   1.189   1.073   2.943 -0.1875  0.0940  0.2388
    1DMC     C5 2093   1.271   0.733   2.922 -0.3619  0.4155  0.1579
    1DMC     C6 2094   1.066   1.123   2.993 -0.3150 -0.1904  0.2141
    1DMC     O1 2095   1.606   1.611   3.956  0.0471  0.3124 -0.1014
    1DMC     C2 2096   1.496   1.603   4.004  0.2443  0.2120  0.3461
    1DMC     O3 2097   1.456   1.487   4.059 -0.0650  0.0789 -0.1522
    1DMC     O4 2098   1.398   1.681   3.955  0.2042  0.0471  0.1638
    1DMC     C5 2099   1.562   1.396   4.044  0.1673  0.2929  0.1718
    1DMC     C6 2100   1.444   1.802   3.899 -0.1306  0.2541  0.3361
    1DMC     O1 2101   2.270   1.848   1.625 -0.1541 -0.0030 -0.0911
    1DMC     C2 2102   2.290   1.871   1.509 -0.3481 -0.1794 -0.1576
    1DMC     O3 2103   2.249   1.980   1.442  0.0468 -0.2057 -0.4441
    1DMC     O4 2104   2.315   1.777   1.416 -0.5260  0.1252 -0.5180
    1DMC     C5 2105   2.216   2.086   1.529 -0.0129 -0.1645 -0.5160
    1DMC     C6 2106   2.323   1.645   1.465 -0.1006  0.2065 -0.3660
    1DMC     O1 2107   0.171   0.208   1.051 -0.1758  0.1084 -0.0529
    1DMC     C2 2108   0.076   0.280   1.048 -0.3486 -0.0779  0.6486
    1DMC     O3 2109  -0.025   0.269   0.959  0.0339  0.0129  0.1983
    1DMC     O4 2110   0.050   0.382   1.131 -0.2392  0.1370  0.4207
    1DMC     C5 2111  -0.027   0.156   0.875  0.1062 -0.0176  0.2372
    1DMC     C6 2112   0.144   0.394   1.236 -0.1316 -0.1850  0.3611
    1DMC     O1 2113   3.926   2.264   1.608  0.2716 -0.1466  0.1268
    1DMC     C2 2114   3.939   2.170   1.682  0.2139 -0.2577 -0.0031
    1DMC     O3 2115   3.994   2.185   1.804 -0.0070  0.0116  0.0657
    1DMC     O4 2116   3.902   2.042   1.666 -0.0791 -0.1581 -0.1131
    1DMC     C5 2117   4.032   2.317   1.834  0.6063 -0.2463  0.4411
    1DMC     C6 2118   3.831   2.021   1.546  0.2764 -0.4385 -0.2722
    1DMC     O1 2119   2.619   0.651   3.414 -0.2134 -0.0395  0.1599
    1DMC     C2 2120   2.564   0.600   3.320 -0.0024  0.3547 -0.1822
    1DMC     O3 2121   2.631   0.538   3.221 -0.4112 -0.2751 -0.0728
    1DMC     O4 2122   2.432   0.605   3.297 -0.0839 -0.3437  0.1089
    1DMC     C5 2123   2.766   0.566   3.250 -0.5285 -0.1454  0.3542
    1DMC     C6 2124   2.361   0.652   3.410 -0.3667  0.1027 -0.2507
    1DMC     O1 2125   3.078   0.759   2.739  0.0597 -0.1447  0.2342
    1DMC     C2 2126   3.168   0.824   2.786  0.0732 -0.0330  0.0549
    1DMC     O3 2127   3.159   0.865   2.913  0.2597  0.2413 -0.0199
    1DMC     O4 2128   3.298   0.824   2.751 -0.0128 -0.0016 -0.2738
    1DMC     C5 2129   3.039   0.827   2.977  0.1681  0.3060 -0.1525
    1DMC     C6 2130   3.327   0.756   2.632 -0.1241 -0.3945 -0.0778
    1DMC     O1 2131   1.965   3.287   1.305  0.2412 -0.2179  0.2757
    1DMC     C2 2132   2.029   3.364   1.371  0.1558  0.1958 -0.1207
    1DMC     O3 2133   1.983   3.480   1.423 -0.1662  0.1888 -0.3879
    1DMC     O4 2134   2.163   3.365   1.359  0.2200 -0.2720  0.5252
    1DMC     C5 2135   1.843   3.497   1.423 -0.1894  0.0052 -0.6631
    1DMC     C6 2136   2.207   3.256   1.281  0.4356 -0.1030  0.4096
    1DMC     O1 2137   1.568   0.371   3.711  0.6031  0.5563  0.7565
    1DMC     C2 2138   1.492   0.463   3.701 -0.4335 -0.3321  0.2465
    1DMC     O3 2139   1.506   0.580   3.766 -0.3647 -0.3499  0.2634
    1DMC     O4 2140   1.396   0.472   3.608  0.0414 -0.2643 -0.2404
    1DMC     C5 2141   1.603   0.580   3.868 -0.2559  0.5372  0.1693
    1DMC     C6 2142   1.388   0.355   3.530  0.2566  0.1587 -0.9060
    1DMC     O1 2143   1.963   0.538   3.955  0.4107 -0.0663  0.0799
    1DMC     C2 2144   2.005   0.613   4.039 -0.3058  0.4066  0.0238
    1DMC     O3 2145   2.086   0.576   4.141 -0.4425  0.3178  0.1007
    1DMC     O4 2146   1.972   0.743   4.044 -0.5322  0.3398  0.3154
    1DMC     C5 2147   2.127   0.442   4.134 -0.3340  0.3172  0.7180
    1DMC     C6 2148   1.894   0.780   3.933 -0.0949 -0.5033 -0.2836
    1DMC     O1 2149   3.044   0.315   2.991 -0.7083  0.0730 -0.4126
    1DMC     C2 2150   3.067   0.216   3.054 -0.5776  0.4522  0.1507
    1DMC     O3 2151   3.081   0.213   3.187  0.0667  0.1582  0.0801
    1DMC     O4 2152   3.086   0.093   3.001 -0.0311  0.5682  0.0776
    1DMC     C5 2153   3.071   0.344   3.237 -0.3955  0.1394  0.0392
    1DMC     C6 2154   3.072   0.085   2.861  0.6032 -0.2999  0.0540
    1DMC     O1 2155   3.559   3.140   2.973  0.1502  0.1604 -0.6221
    1DMC     C2 2156   3.440   3.145   2.989  0.2551 -0.2547  0.3621
    1DMC     O3 2157   3.381   3.122   3.108 -0.0917 -0.2489  0.1922
    1DMC     O4 2158   3.363   3.111   2.884  0.4150  0.5078 -0.0033
    1DMC     C5 2159   3.479   3.092   3.205 -0.2484 -0.6159  0.2390
    1DMC     C6 2160   3.441   3.085   2.769  0.1595  0.0753 -0.0816
    1DMC     O1 2161   2.140   1.699   0.038  0.2782  0.1791  0.2009
    1DMC     C2 2162   2.178   1.629  -0.051  0.0033 -0.0764  0.2817
    1DMC     O3 2163   2.273   1.535  -0.051  0.1917  0.1117  0.0700
    1DMC     O4 2164   2.131   1.633  -0.177 -0.1188  0.4437  0.3400
    1DMC     C5 2165   2.335   1.520   0.075  0.0938  0.1638  0.1240
    1DMC     C6 2166   2.025   1.726  -0.170 -0.3679  0.2693 -0.7960
    1DMC     O1 2167   0.551   1.165   2.984 -0.1468 -0.3790  0.3658
    1DMC     C2 2168   0.472   1.137   2.898 -0.5414  0.0057  0.6049
    1DMC     O3 2169   0.426   1.012   2.881  0.3790 -0.2137 -0.3521
    1DMC     O4 2170   0.464   1.201   2.780 -0.4389 -0.0314  0.5782
    1DMC     C5 2171   0.456   0.939   2.998  0.3436 -0.3705 -0.4401
    1DMC     C6 2172   0.544   1.317   2.779  0.0155 -0.3432  0.2319
    1DMC     O1 2173   1.946   2.902   1.569 -0.5047 -0.3724  0.0312
    1DMC     C2 2174   1.977   3.017   1.586 -0.8197 -0.3049  0.1571
    1DMC     O3 2175   1.904   3.128   1.564  0.2499  0.4825  0.5048
    1DMC     O4 2176   2.080   3.054   1.664 -0.2686 -1.3337 -0.0688
    1DMC     C5 2177   1.783   3.093   1.500  0.4947  0.2003  0.1894
    1DMC     C6 2178   2.161   2.943   1.699 -0.0546 -0.8837  0.8741
    1DMC     O1 2179   1.533   2.442   1.391 -0.2429 -0.0100 -0.0669
    1DMC     C2 2180   1.616   2.448   1.304 -0.1633  0.4428  0.0400
    1DMC     O3 2181   1.609   2.538   1.204  0.5979  0.6506  0.1708
    1DMC     O4 2182   1.739   2.394   1.310 -0.4569 -0.2708 -0.2828
    1DMC     C5 2183   1.492   2.616   1.212  0.2423  0.1979 -0.5266
    1DMC     C6 2184   1.754   2.321   1.429  0.3785  0.4614  0.0722
    1DMC     O1 2185   1.086   2.951   2.239  0.1452  0.0554  0.4745
    1DMC     C2 2186   1.109   3.020   2.335 -0.2578  0.8127  0.0389
    1DMC     O3 2187   1.028   3.039   2.440 -0.2559 -0.5937  0.3168
    1DMC     O4 2188   1.237   3.047   2.368 -0.0051 -0.0487 -0.1886
    1DMC     C5 2189   0.911   2.966   2.416 -0.6541  0.1174  0.0687
    1DMC     C6 2190   1.330   2.988   2.281  0.3528  0.3489 -0.0807
    1DMC     O1 2191   3.474   3.936   0.338  0.0068  0.7275 -0.2590
    1DMC     C2 2192   3.365   3.916   0.385  0.1406  0.0899 -0.2053
    1DMC     O3 2193   3.266   3.847   0.327  0.3620 -0.8875  0.5468
    1DMC     O4 2194   3.311   4.009   0.466  0.2740  0.0339 -0.0507
    1DMC     C5 2195   3.314   3.776   0.215  0.0664 -0.0426 -0.1242
    1DMC     C6 2196   3.404   4.107   0.505 -0.3370  0.5943  0.0090
    1DMC     O1 2197   3.515   3.556   2.614 -0.2444  0.7041  0.0376
    1DMC     C2 2198   3.441   3.475   2.663 -0.1684  0.5381 -0.1204
    1DMC     O3 2199   3.387   3.489   2.785  0.3769 -0.1953  0.2171
    1DMC     O4 2200   3.407   3.360   2.602 -0.1928  0.4037  0.1449
    1DMC     C5 2201   3.408   3.618   2.840 -0.1616  0.0174 -0.0650
    1DMC     C6 2202   3.466   3.366   2.474 -0.7133 -0.6372 -0.1534
    1DMC     O1 2203   2.482   0.835   1.544  0.1573 -0.4355  0.0373
    1DMC     C2 2204   2.418   0.752   1.487 -0.5861  0.3606 -0.3176
    1DMC     O3 2205   2.292   0.721   1.521 -0.3647  0.0122  0.1977
    1DMC     O4 2206   2.442   0.697   1.367 -0.0689  0.3173 -0.1975
    1DMC     C5 2207   2.237   0.807   1.618  0.4950 -0.2380  0.9238
    1DMC     C6 2208   2.578   0.713   1.333  0.2133 -0.2602  0.6375
    1DMC     O1 2209   0.618   0.032   1.891 -0.0960 -0.2512 -0.2535
    1DMC     C2 2210   0.559   0.056   1.992  0.5157 -0.3512  0.1342
    1DMC     O3 2211   0.437   0.005   2.020  0.3323 -0.2286 -0.4427
    1DMC     O4 2212   0.623   0.100   2.102  0.1889 -0.0375  0.2006
    1DMC     C5 2213   0.414  -0.088   1.916  0.4026 -0.7682  0.0229
    1DMC     C6 2214   0.756   0.143   2.082  0.1046 -0.1022 -0.5189
    1DMC     O1 2215   1.107   0.184   2.445  0.1936  0.0339  0.2913
    1DMC     C2 2216   1.160   0.291   2.456  0.0064  0.1233  0.3265
    1DMC     O3 2217   1.081   0.400   2.456 -0.1393  0.0199 -0.0753
    1DMC     O4 2218   1.290   0.319   2.435 -0.0267 -0.2204 -0.3386
    1DMC     C5 2219   0.944   0.378   2.431 -0.3097  0.1745  0.6786
    1DMC     C6 2220   1.352   0.215   2.362  0.2839  0.2003 -0.6743
    1DMC     O1 2221   1.646   2.086   3.875 -0.3607  0.6053  0.5706
    1DMC     C2 2222   1.719   2.160   3.935  0.4738  0.1998  0.0751
    1DMC     O3 2223   1.824   2.111   4.005  0.4133 -0.1615 -0.0842
    1DMC     O4 2224   1.733   2.290   3.908  0.2534  0.2049 -0.0194
    1DMC     C5 2225   1.818   1.970   4.005  0.0251 -0.1470  0.2255
    1DMC     C6 2226   1.621   2.345   3.844  0.0627  0.4058  0.4761
    1DMC     O1 2227   1.008   1.362   3.265 -0.3546 -0.6411 -0.1849
    1DMC     C2 2228   0.978   1.444   3.183  0.2585 -0.3811 -0.1562
    1DMC     O3 2229   1.072   1.519   3.123  0.0093  0.3785  0.3878
    1DMC     O4 2230   0.866   1.441   3.108  0.0581  0.1091  0.1230
    1DMC     C5 2231   1.202   1.467   3.142 -0.1535 -0.2283 -0.1074
    1DMC     C6 2232   0.767   1.347   3.142 -0.6567  0.5541 -0.6782
    1DMC     O1 2233   2.220   3.849   2.208  0.2951 -0.2686  0.5709
    1DMC     C2 2234   2.224   3.739   2.160  0.1007 -0.0229 -0.0241
    1DMC     O3 2235   2.198   3.626   2.228  0.0697 -0.0622 -0.1011
    1DMC     O4 2236   2.211   3.716   2.028  0.1564  0.5476 -0.1316
    1DMC     C5 2237   2.189   3.662   2.364  0.2158  0.2179 -0.1640
    1DMC     C6 2238   2.216   3.826   1.941  0.7962  0.3718 -0.3261
    1DMC     O1 2239   3.053   0.760   1.377 -0.4097  0.2087  0.0345
    1DMC     C2 2240   2.965   0.700   1.433  0.3828 -0.8398  0.1886
    1DMC     O3 2241   2.896   0.734   1.543  0.3906  0.1235 -0.0942
    1DMC     O4 2242   2.893   0.607   1.368 -0.1386 -0.1293 -0.2636
    1DMC     C5 2243   2.957   0.848   1.599  0.3176  0.2849 -0.3431
    1DMC     C6 2244   2.934   0.576   1.236 -0.6892 -0.2323 -0.4104
    1DMC     O1 2245   1.851   0.463   1.746  0.5968  0.6316  0.0883
    1DMC     C2 2246   1.807   0.564   1.794  0.4194  0.5384  0.1218
    1DMC     O3 2247   1.800   0.587   1.926  0.6848  0.4244  0.1561
    1DMC     O4 2248   1.800   0.682   1.729 -0.6474  0.4723  0.0979
    1DMC     C5 2249   1.862   0.474   1.984  0.0972  0.2424  0.4343
    1DMC     C6 2250   1.830   0.670   1.592 -0.1354  0.3077  0.2201
    1DMC     O1 2251   1.318   1.787   0.904  0.6761 -0.5536 -0.3830
    1DMC     C2 2252   1.372   1.894   0.897  0.3128 -0.2910  0.6422
    1DMC     O3 2253   1.499   1.925   0.926  0.2900 -0.2688  0.7190
    1DMC     O4 2254   1.296   2.000   0.863  0.4484 -0.3574  0.1290
    1DMC     C5 2255   1.571   1.829   0.999  0.3563 -0.6844  0.1128
    1DMC     C6 2256   1.161   1.967   0.839  0.3320  0.1948  0.0060
    1DMC     O1 2257   3.203   2.237   1.043 -0.2037  0.0939  0.3365
    1DMC     C2 2258   3.106   2.195   0.985  0.1422 -0.1793 -0.0502
    1DMC     O3 2259   3.103   2.173   0.853  0.0235  0.5637 -0.1740
    1DMC     O4 2260   2.984   2.192   1.040  0.1729 -0.7081 -0.0049
    1DMC     C5 2261   3.230   2.175   0.790 -0.2032  0.0004 -0.6553
    1DMC     C6 2262   2.994   2.222   1.178 -0.0744  0.4929 -0.2355
    1DMC     O1 2263   2.453   2.675   2.272  0.2288  0.9351  0.4888
    1DMC     C2 2264   2.411   2.673   2.385  0.0788 -0.3309  0.4258
    1DMC     O3 2265   2.411   2.780   2.466  0.2378  0.0074 -0.0187
    1DMC     O4 2266   2.398   2.566   2.465 -0.2650 -0.1360  0.6351
    1DMC     C5 2267   2.415   2.888   2.375 -0.4150 -0.0990 -0.1810
    1DMC     C6 2268   2.405   2.447   2.388 -0.2194 -0.1739  0.6979
    1DMC     O1 2269   1.664   3.118   2.291  0.3876 -0.4198 -1.0012
    1DMC     C2 2270   1.782   3.127   2.272  0.4464 -0.4011 -0.6350
    1DMC     O3 2271   1.835   3.117   2.149  0.3989 -0.1662 -0.6744
    1DMC     O4 2272   1.873   3.077   2.357  0.1277 -0.0921 -0.1056
    1DMC     C5 2273   1.734   3.078   2.058 -0.5083 -0.3155  0.3691
    1DMC     C6 2274   1.821   3.054   2.486  0.5186 -0.7195 -0.0528
    1DMC     O1 2275   3.137   0.827   1.014  0.5233  0.4165  0.1460
    1DMC     C2 2276   3.207   0.734   0.988 -0.3793 -0.2669  0.1307
    1DMC     O3 2277   3.167   0.624   0.922  0.1472 -0.2769 -0.1864
    1DMC     O4 2278   3.307   0.700   1.071  0.1576  0.4547 -0.2161
    1DMC     C5 2279   3.037   0.638   0.869  0.1466 -0.2760 -0.1845
    1DMC     C6 2280   3.303   0.788   1.181 -0.1768 -0.0824  0.2036
    1DMC     O1 2281   0.445   0.366   2.903  0.5838  0.1766 -0.3280
    1DMC     C2 2282   0.435   0.333   3.018  0.4929 -0.3254 -0.4800
    1DMC     O3 2283   0.326   0.366   3.090  0.4424  0.1773 -0.7841
    1DMC     O4 2284   0.536   0.305   3.101  0.2403 -0.0861 -0.0902
    1DMC     C5 2285   0.238   0.446   3.014 -0.4133 -0.3594 -0.3709
    1DMC     C6 2286   0.663   0.304   3.040  0.2533  0.7261 -0.0845
    1DMC     O1 2287   0.570   2.329   3.309 -0.4003  0.3817  0.5375
    1DMC     C2 2288   0.499   2.414   3.263  0.1042  0.4769 -0.0708
    1DMC     O3 2289   0.365   2.411   3.266  0.0982  0.3690 -0.3569
    1DMC     O4 2290   0.542   2.538   3.234  0.5158  0.3847  0.1261
    1DMC     C5 2291   0.312   2.320   3.360 -0.1962  0.5383 -0.3563
    1DMC     C6 2292   0.682   2.551   3.229  0.4667  0.7694 -0.3309
    1DMC     O1 2293   3.202   2.687   1.037 -0.0781  0.1806 -0.4871
    1DMC     C2 2294   3.281   2.772   1.068 -0.2365  0.0554  0.2812
    1DMC     O3 2295   3.258   2.900   1.099 -0.4513 -0.0962  0.7496
    1DMC     O4 2296   3.415   2.759   1.065 -0.2885 -0.3977 -0.1966
    1DMC     C5 2297   3.118   2.921   1.104 -0.4290  0.3024 -0.0609
    1DMC     C6 2298   3.466   2.631   1.033  0.1937 -0.2139 -0.1746
    1DMC     O1 2299   3.659   1.165   2.360 -0.0630 -0.2691  0.2041
    1DMC     C2 2300   3.662   1.060   2.417 -0.0192 -0.0483  0.6109
    1DMC     O3 2301   3.767   0.976   2.411  0.1559  0.1854  0.4217
    1DMC     O4 2302   3.577   1.006   2.507 -0.1131 -0.0839  0.5011
    1DMC     C5 2303   3.875   1.004   2.326 -0.4155  0.4033 -0.2363
    1DMC     C6 2304   3.456   1.077   2.526  0.2755  0.6335  0.3257
    1DMC     O1 2305   1.193   3.924   0.215  0.4130  0.4622 -0.1270
    1DMC     C2 2306   1.207   3.915   0.334 -0.1685  0.6619 -0.0437
    1DMC     O3 2307   1.327   3.904   0.393 -0.2864  0.3708  0.1440
    1DMC     O4 2308   1.111   3.932   0.427 -0.3049 -0.5172  0.0448
    1DMC     C5 2309   1.419   3.857   0.298 -0.1734  0.0578  0.4076
    1DMC     C6 2310   0.994   3.939   0.349 -0.2790  0.0859  0.0500
    1DMC     O1 2311   3.584   1.845   0.112  0.0471  0.5653  0.6279
    1DMC     C2 2312   3.489   1.775   0.090  0.6663 -0.0864 -0.0648
    1DMC     O3 2313   3.496   1.642   0.106 -0.2212 -0.1281  0.0226
    1DMC     O4 2314   3.373   1.818   0.038  0.5387  0.4661  0.6591
    1DMC     C5 2315   3.628   1.595   0.124  0.0571  0.3274 -0.7831
    1DMC     C6 2316   3.380   1.949  -0.012 -0.2180  0.2166 -0.1231
    1DMC     O1 2317   0.778   0.573   2.001  0.5464 -0.0849 -0.4029
    1DMC     C2 2318   0.735   0.651   1.921 -0.2616  0.3167  0.4145
    1DMC     O3 2319   0.631   0.640   1.836 -0.0311 -0.1153  0.1855
    1DMC     O4 2320   0.768   0.781   1.930  0.4465  0.1940 -0.3229
    1DMC     C5 2321   0.577   0.511   1.855 -0.3362  0.0056  0.1362
    1DMC     C6 2322   0.832   0.819   2.050  0.3201  0.0995 -0.2264
    1DMC     O1 2323   1.935   3.861   3.058  0.6458  0.1043 -0.3166
    1DMC     C2 2324   1.857   3.946   3.090  0.1709 -0.4330 -0.0147
    1DMC     O3 2325   1.723   3.945   3.083  0.1644  0.1054 -0.0210
    1DMC     O4 2326   1.895   4.040   3.178  0.0052  0.0125 -0.4165
    1DMC     C5 2327   1.676   3.839   3.002 -0.6171  0.0863  0.4445
    1DMC     C6 2328   2.029   4.021   3.217 -0.1923  0.1936  0.3622
    1DMC     O1 2329   0.244   3.766   1.636 -0.5479  0.3204 -0.1828
    1DMC     C2 2330   0.224   3.657   1.588  0.0455 -0.0770  0.4674
    1DMC     O3 2331   0.100   3.607   1.582  0.0754 -0.1273  0.2533
    1DMC     O4 2332   0.314   3.576   1.530 -0.1487 -0.1011  0.1985
    1DMC     C5 2333   0.021   3.709   1.640  0.3449  0.2058  0.0387
    1DMC     C6 2334   0.443   3.633   1.519 -0.1937  0.0967  0.6439
    1DMC     O1 2335   1.527   3.940   3.606  0.1114 -0.7349 -0.6103
    1DMC     C2 2336   1.606   3.935   3.696 -0.3442  0.0935 -0.1444
    1DMC     O3 2337   1.739   3.933   3.671 -0.3636 -0.1769 -0.2315
    1DMC     O4 2338   1.586   3.932   3.829 -0.2487 -0.2620 -0.1355
    1DMC     C5 2339   1.753   3.979   3.538  0.9440  0.2458  0.0467
    1DMC     C6 2340   1.447   3.940   3.850 -0.2276  0.2745 -0.1686
    1DMC     O1 2341   1.395   1.789   3.439 -0.4950  0.4019  0.0179
    1DMC     C2 2342   1.342   1.896   3.426 -0.3374  0.4771 -0.0041
    1DMC     O3 2343   1.239   1.922   3.344 -0.5455 -0.1229  0.0609
    1DMC     O4 2344   1.376   2.004   3.498  0.0082  0.3117  0.0859
    1DMC     C5 2345   1.223   1.818   3.250  0.2483 -0.4688  0.3016
    1DMC     C6 2346   1.486   1.991   3.585  0.1025  0.3871 -0.0216
    1DMC     O1 2347   2.834   1.318   2.392  0.3794  0.1328  0.2584
    1DMC     C2 2348   2.872   1.282   2.284 -0.0768 -0.0877  0.1681
    1DMC     O3 2349   3.002   1.265   2.258 -0.2157 -0.3096 -0.3920
    1DMC     O4 2350   2.800   1.301   2.172  0.2932 -0.1553 -0.0828
    1DMC     C5 2351   3.077   1.259   2.378 -0.3325  0.2233 -0.2920
    1DMC     C6 2352   2.683   1.376   2.198  0.4440  0.0247  0.0707
    1DMC     O1 2353   3.214   2.647   0.669 -0.6497 -0.0048 -0.1671
    1DMC     C2 2354   3.194   2.533   0.638  0.0748 -0.1476 -0.1122
    1DMC     O3 2355   3.261   2.461   0.546  0.2967 -0.6471  0.4339
    1DMC     O4 2356   3.113   2.454   0.710  0.2383  0.1809  0.4395
    1DMC     C5 2357   3.385   2.517   0.510  0.1744 -0.0076  0.9910
    1DMC     C6 2358   3.042   2.520   0.813 -0.3817  0.4579 -0.1577
    1DMC     O1 2359   1.877   0.866   2.483  0.1894  0.2183  0.1245
    1DMC     C2 2360   1.853   0.903   2.371  0.2023 -0.0891  0.0191
    1DMC     O3 2361   1.789   1.018   2.341 -0.6061 -0.3650  0.6411
    1DMC     O4 2362   1.861   0.833   2.257 -0.1632  0.1707 -0.1679
    1DMC     C5 2363   1.772   1.102   2.452  0.1857  0.3201  0.2533
    1DMC     C6 2364   1.825   0.697   2.265 -0.3474  0.2282 -0.0141
    1DMC     O1 2365   3.770   3.266   3.238 -0.1125 -0.2723  0.1723
    1DMC     C2 2366   3.848   3.313   3.159 -0.3566  0.3516  0.2920
    1DMC     O3 2367   3.821   3.417   3.079  0.3537  0.1037 -0.2849
    1DMC     O4 2368   3.974   3.273   3.135 -0.4695  0.0702  0.1599
    1DMC     C5 2369   3.683   3.441   3.093  0.2400 -0.7867  0.1908
    1DMC     C6 2370   4.026   3.174   3.222 -0.0175  0.4689  0.3497
    1DMC     O1 2371   1.897   3.389   2.069 -0.0799 -0.6206 -0.4821
    1DMC     C2 2372   1.929   3.481   1.998  0.0438 -0.4948 -0.2641
    1DMC     O3 2373   1.885   3.604   2.029  0.5192 -0.3535 -0.1519
    1DMC     O4 2374   1.961   3.460   1.869  0.0772  0.4556 -0.4136
    1DMC     C5 2375   1.839   3.616   2.162  0.7253 -0.4848 -0.0672
    1DMC     C6 2376   1.957   3.326   1.827  0.5246  0.2605  0.1511
    1DMC     O1 2377   2.196   0.926   0.866 -0.1084 -0.2180  0.1797
    1DMC     C2 2378   2.290   0.888   0.802 -0.5980  0.3215 -0.8725
    1DMC     O3 2379   2.322   0.758   0.807 -0.9511  0.2569 -0.2466
    1DMC     O4 2380   2.391   0.966   0.760  0.0930 -0.1304 -0.0789
    1DMC     C5 2381   2.234   0.670   0.874  0.0922 -0.4378  0.2509
    1DMC     C6 2382   2.386   1.100   0.805  0.1009  0.0150 -0.5006
    1DMC     O1 2383   1.276   3.118   0.228  0.1405 -0.0281 -0.4195
    1DMC     C2 2384   1.214   3.044   0.299 -0.2099  0.4358 -0.2408
    1DMC     O3 2385   1.088   3.008   0.270 -0.2755  0.4024  0.0785
    1DMC     O4 2386   1.278   2.964   0.386 -0.1477  0.2985 -0.4130
    1DMC     C5 2387   1.047   3.082   0.157 -0.1551  0.1269 -0.1453
    1DMC     C6 2388   1.415   2.996   0.387  0.1214 -0.8218 -0.0998
    1DMC     O1 2389   0.436   0.552   1.107  0.1113 -0.1059 -0.1415
    1DMC     C2 2390   0.478   0.592   1.002 -0.3836  0.2571 -0.2019
    1DMC     O3 2391   0.500   0.517   0.892  0.1073 -0.0611  0.1113
    1DMC     O4 2392   0.539   0.710   0.985 -0.6656  0.4903  0.3780
    1DMC     C5 2393   0.446   0.388   0.911 -0.2638  0.0923  0.1247
    1DMC     C6 2394   0.587   0.774   1.101 -0.3140  0.3677  0.3003
    1DMC     O1 2395   2.539   1.622   2.995  0.7225  0.1760 -0.4091
    1DMC     C2 2396   2.608   1.613   3.093  0.2643 -0.1251 -0.1131
    1DMC     O3 2397   2.628   1.496   3.155  0.2180  0.2097  0.5508
    1DMC     O4 2398   2.701   1.705   3.125 -0.3198  0.3596  0.2227
    1DMC     C5 2399   2.564   1.380   3.106  0.6017  0.2149  0.0285
    1DMC     C6 2400   2.680   1.836   3.079 -0.3106  0.1174 -0.4738
    1DMC     O1 2401   2.032   2.875   1.174  0.1689  0.3692  0.0965
    1DMC     C2 2402   2.038   2.783   1.251 -0.0444 -0.1140 -0.4531
    1DMC     O3 2403   2.140   2.761   1.336 -0.5582  0.2253  0.2692
    1DMC     O4 2404   1.974   2.667   1.228  0.3665 -0.3720 -0.3040
    1DMC     C5 2405   2.242   2.855   1.309 -0.5103 -0.0348 -0.5007
    1DMC     C6 2406   1.891   2.657   1.115  0.2432  0.4192 -0.2901
    1DMC     O1 2407   0.550   1.949   1.010  0.1076  0.0920 -0.5130
    1DMC     C2 2408   0.519   1.930   0.896  0.2890  1.3888 -0.7989
    1DMC     O3 2409   0.393   1.928   0.848  0.0865 -0.0994 -0.2569
    1DMC     O4 2410   0.588   1.857   0.806 -0.0112 -0.1658  0.1992
    1DMC     C5 2411   0.297   1.967   0.943 -0.2298 -0.2668 -0.5073
    1DMC     C6 2412   0.670   1.758   0.864  0.2679 -0.1395 -0.1476
    1DMC     O1 2413   0.999   3.246   3.580 -0.2730  0.1121 -0.1499
    1DMC     C2 2414   0.949   3.276   3.685 -0.3482 -0.4225 -0.0325
    1DMC     O3 2415   0.832   3.339   3.702 -0.1170 -0.0039  0.0134
    1DMC     O4 2416   0.996   3.241   3.806  0.1603  0.1813 -0.0514
    1DMC     C5 2417   0.772   3.384   3.582 -0.5413 -0.1786  0.1569
    1DMC     C6 2418   1.121   3.184   3.777  0.0645  0.0574 -0.2180
    1DMC     O1 2419   3.499   1.197   3.937  0.1119 -0.1428 -0.3283
    1DMC     C2 2420   3.409   1.172   3.862 -0.2256  0.1537 -0.0185
    1DMC     O3 2421   3.346   1.054   3.846  0.2216 -0.0104 -0.5715
    1DMC     O4 2422   3.332   1.272   3.817 -0.0632  0.3144  0.0617
    1DMC     C5 2423   3.405   0.956   3.929  0.2810  0.2616 -0.2916
    1DMC     C6 2424   3.368   1.395   3.877 -0.4685  0.4439  0.0418
    1DMC     O1 2425   2.636   2.022   3.812  0.0856  0.6216  0.5107
    1DMC     C2 2426   2.653   1.944   3.902  0.2593 -0.1795 -0.2005
    1DMC     O3 2427   2.605   1.819   3.912 -0.1960  0.0048 -0.0302
    1DMC     O4 2428   2.695   1.986   4.023  0.1378 -0.5182 -0.0398
    1DMC     C5 2429   2.553   1.756   3.797 -0.2980  0.2320 -0.1074
    1DMC     C6 2430   2.761   2.110   4.031  0.2836 -0.6153  0.2568
    1DMC     O1 2431   3.657   2.816   2.202 -0.2844 -0.3378 -0.2945
    1DMC     C2 2432   3.555   2.876   2.222  0.1271  0.3612 -0.2557
    1DMC     O3 2433   3.460   2.906   2.132 -0.2922 -1.0533 -0.3072
    1DMC     O4 2434   3.504   2.903   2.343  0.1871 -0.1073 -0.1234
    1DMC     C5 2435   3.520   2.878   2.007 -0.4069 -0.1489 -0.5750
    1DMC     C6 2436   3.585   2.860   2.450  0.6754  0.1580 -0.3803
    1DMC     O1 2437   1.659   0.644   0.961  0.1942 -1.0780  0.4010
    1DMC     C2 2438   1.722   0.613   0.864  0.0852 -0.0729 -0.0011
    1DMC     O3 2439   1.815   0.692   0.809 -0.3689  0.3956 -0.1033
    1DMC     O4 2440   1.735   0.490   0.812 -0.1870  0.0111 -0.2675
    1DMC     C5 2441   1.846   0.816   0.868 -0.3723  0.7093 -0.7479
    1DMC     C6 2442   1.663   0.394   0.886 -0.2903 -0.0325 -0.4235
    1DMC     O1 2443   3.315   3.664   3.615 -0.7298 -0.2367  0.1160
    1DMC     C2 2444   3.292   3.692   3.729 -0.2718  0.1363  0.1213
    1DMC     O3 2445   3.171   3.729   3.773 -0.1861 -0.3310  0.7843
    1DMC     O4 2446   3.356   3.643   3.837  0.1127 -0.2268 -0.2671
    1DMC     C5 2447   3.060   3.706   3.688  0.8081 -0.1815 -0.5869
    1DMC     C6 2448   3.469   3.574   3.789  0.4760 -0.0453  0.3098
    1DMC     O1 2449   2.122   2.398   0.126 -0.2637 -0.4887 -0.6401
    1DMC     C2 2450   2.059   2.488   0.077 -0.5391 -0.0840  0.4066
    1DMC     O3 2451   2.045   2.614   0.121  0.2835  0.0553  0.2912
    1DMC     O4 2452   1.998   2.468  -0.041  0.3356 -0.1261 -0.0497
    1DMC     C5 2453   2.097   2.632   0.252 -0.4325  0.3528  0.5382
    1DMC     C6 2454   2.038   2.343  -0.093 -0.2828 -0.3393 -0.0168
    1DMC     O1 2455   2.621   3.175   3.327 -0.4113  0.3957  0.5026
    1DMC     C2 2456   2.527   3.114   3.286  0.3558 -0.6576  0.2480
    1DMC     O3 2457   2.501   3.100   3.155 -0.2648  0.0018  0.2905
    1DMC     O4 2458   2.443   3.031   3.350 -0.2840 -0.0173  0.2657
    1DMC     C5 2459   2.570   3.203   3.087  0.0526 -0.1907  0.3194
    1DMC     C6 2460   2.478   3.017   3.487  0.0846 -0.3425  0.1424
    1DMC     O1 2461   3.616   2.473   1.964  0.0220  0.0570  0.7354
    1DMC     C2 2462   3.732   2.448   1.986  0.1387 -0.2940 -0.2359
    1DMC     O3 2463   3.837   2.515   1.935  0.1392 -0.0665  0.0619
    1DMC     O4 2464   3.770   2.362   2.082  0.5920  0.4633  0.2716
    1DMC     C5 2465   3.793   2.616   1.847 -0.3773  0.0783  0.4778
    1DMC     C6 2466   3.655   2.308   2.145  0.6065  0.1735  0.0484
    1DMC     O1 2467   1.870   2.028   1.417 -0.0466 -0.0514 -0.1805
    1DMC     C2 2468   1.842   1.951   1.505  0.4581 -0.1690 -0.1224
    1DMC     O3 2469   1.806   1.985   1.630 -0.1664 -0.2359 -0.2807
    1DMC     O4 2470   1.817   1.820   1.488  0.0515 -0.1738  0.4653
    1DMC     C5 2471   1.850   2.113   1.671 -0.0031 -0.3834  0.0067
    1DMC     C6 2472   1.851   1.777   1.358 -0.4369  0.3112  0.1754
    1DMC     O1 2473   1.190   2.538   0.163 -0.0054 -0.0006 -0.3235
    1DMC     C2 2474   1.215   2.430   0.117 -0.2600 -0.2269  0.0690
    1DMC     O3 2475   1.336   2.373   0.120 -0.2228 -0.1849 -0.5798
    1DMC     O4 2476   1.128   2.348   0.055 -0.0452 -0.5747  0.2224
    1DMC     C5 2477   1.412   2.418   0.230 -0.2526 -0.0397 -0.6185
    1DMC     C6 2478   1.014   2.369   0.134 -0.1507 -0.0660 -0.0588
    1DMC     O1 2479   0.993   0.237   3.026  0.0168 -0.5130 -0.1072
    1DMC     C2 2480   1.078   0.262   2.945  0.1288 -0.1388  0.1200
    1DMC     O3 2481   1.198   0.314   2.974  0.3007 -0.3931 -0.1240
    1DMC     O4 2482   1.061   0.253   2.812 -0.2459  0.2531  0.1395
    1DMC     C5 2483   1.222   0.341   3.111  0.0577 -0.4425 -0.0725
    1DMC     C6 2484   0.925   0.259   2.778 -0.2586  0.0074  0.1476
    1DMC     O1 2485   1.659   2.416   0.464 -0.2743  0.7771  0.0834
    1DMC     C2 2486   1.758   2.462   0.416  0.3292 -0.0720  0.4939
    1DMC     O3 2487   1.841   2.394   0.335  0.1712 -0.0582  0.3221
    1DMC     O4 2488   1.762   2.595   0.394 -0.0004 -0.1717 -0.1982
    1DMC     C5 2489   1.813   2.256   0.333  0.9247 -0.2150  0.4446
    1DMC     C6 2490   1.652   2.666   0.445  0.3720  0.3712 -0.1417
    1DMC     O1 2491   0.010   2.003   3.620  0.2504  0.5646 -0.0393
    1DMC     C2 2492   0.065   1.952   3.713 -0.0359 -0.0339 -0.1955
    1DMC     O3 2493   0.195   1.917   3.710 -0.1180 -0.3641  0.0517
    1DMC     O4 2494   0.006   1.893   3.818  0.0294 -0.1880 -0.2450
    1DMC     C5 2495   0.252   1.975   3.595 -0.4798  0.1838  0.1462
    1DMC     C6 2496  -0.135   1.900   3.822  0.0298  0.0134 -0.5472
    1DMC     O1 2497   2.342   0.128   0.140  0.2519  0.2835 -0.2351
    1DMC     C2 2498   2.311   0.013   0.147  0.0213  0.3836  0.4812
    1DMC     O3 2499   2.389  -0.088   0.190 -0.0438 -0.0478 -0.3825
    1DMC     O4 2500   2.228  -0.043   0.057  0.9979 -0.3200  0.0033
    1DMC     C5 2501   2.504  -0.024   0.241 -0.0427 -0.1840 -0.2161
    1DMC     C6 2502   2.179   0.046  -0.041  0.2832  0.1616  0.7915
    1DMC     O1 2503   0.907   1.340   2.805 -0.3962  0.1384  0.5627
    1DMC     C2 2504   0.957   1.434   2.751 -0.0514 -0.4762 -0.2131
    1DMC     O3 2505   1.046   1.414   2.653  0.0448  0.0483 -0.2374
    1DMC     O4 2506   0.905   1.557   2.738 -0.2974 -0.5598 -0.0268
    1DMC     C5 2507   1.083   1.278   2.659 -0.3411 -0.0371  0.1742
    1DMC     C6 2508   0.782   1.563   2.807 -0.1725  0.0164  0.1523
    1DMC     O1 2509   3.220   2.395   2.293 -0.0889  0.2211 -0.6104
    1DMC     C2 2510   3.273   2.490   2.344  0.1348 -0.3164  0.1628
    1DMC     O3 2511   3.343   2.579   2.272 -0.0848 -0.3726 -0.1227
    1DMC     O4 2512   3.249   2.537   2.468  0.0295  0.1975 -0.0529
    1DMC     C5 2513   3.391   2.529   2.150  0.0763  0.2901 -0.3359
    1DMC     C6 2514   3.152   2.458   2.532  0.0519 -0.2026 -0.5060
    1DMC     O1 2515   1.117   0.080   1.964  0.0401  0.1066 -0.2378
    1DMC     C2 2516   1.193  -0.010   1.987 -0.1706 -0.1665 -0.6125
    1DMC     O3 2517   1.324  -0.012   1.959 -0.2120 -0.0996 -0.8102
    1DMC     O4 2518   1.177  -0.099   2.087 -0.1471  0.6217  0.0964
    1DMC     C5 2519   1.350   0.117   1.909 -0.4540  0.4015  0.3395
    1DMC     C6 2520   1.076  -0.084   2.185  0.2686 -0.1650  0.6538
    1DMC     O1 2521   1.462   0.630   2.228 -0.0557  0.4253  0.3774
    1DMC     C2 2522   1.434   0.653   2.113 -0.0609  0.1659  0.3256
    1DMC     O3 2523   1.330   0.727   2.073  0.1751  0.3241 -0.0000
    1DMC     O4 2524   1.456   0.558   2.020 -0.7713 -0.2664  0.5899
    1DMC     C5 2525   1.256   0.792   2.174 -0.2850  0.0616 -0.1655
    1DMC     C6 2526   1.523   0.442   2.064 -0.4365 -0.3701 -0.1760
    1DMC     O1 2527   3.396   3.065   1.521  0.0538 -0.3109  0.1227
    1DMC     C2 2528   3.413   2.960   1.576 -0.5283 -0.4225  0.0996
    1DMC     O3 2529   3.331   2.855   1.559 -0.5356 -0.3932 -0.0454
    1DMC     O4 2530   3.526   2.935   1.645 -0.1566  0.5339 -0.1369
    1DMC     C5 2531   3.246   2.881   1.450 -0.6143 -1.0427 -0.1443
    1DMC     C6 2532   3.629   3.030   1.630  0.5297 -0.1109  0.4011
    1DMC     O1 2533   1.463   1.010   1.217 -0.1916 -0.8692 -0.3234
    1DMC     C2 2534   1.575   0.971   1.233 -0.1509 -0.7236 -0.2558
    1DMC     O3 2535   1.670   1.009   1.146  0.0685  0.2987  0.4175
    1DMC     O4 2536   1.623   0.957   1.358  0.0181 -0.5053 -0.2959
    1DMC     C5 2537   1.615   1.086   1.042  0.2266  0.1657  0.2338
    1DMC     C6 2538   1.519   0.953   1.454  0.0646  0.5172 -0.1860
    1DMC     O1 2539   2.894   2.319   0.453  0.5572 -0.4639  0.5696
    1DMC     C2 2540   2.810   2.359   0.529 -0.2447 -0.2539 -0.4159
    1DMC     O3 2541   2.772   2.488   0.542  0.4007 -0.0960 -0.0462
    1DMC     O4 2542   2.771   2.290   0.637  0.0930 -0.1710 -0.2405
    1DMC     C5 2543   2.854   2.578   0.472  0.0198  0.1415 -0.1917
    1DMC     C6 2544   2.818   2.158   0.621 -0.2661 -0.3308  0.0112
    1DMC     O1 2545   2.600   3.708   2.262 -0.1147 -0.2614  0.2654
    1DMC     C2 2546   2.632   3.816   2.221  0.3370 -0.3810  0.2902
    1DMC     O3 2547   2.614   3.926   2.297 -0.2046 -0.1680 -0.1388
    1DMC     O4 2548   2.660   3.858   2.097 -0.0619 -0.0938  0.2927
    1DMC     C5 2549   2.551   3.883   2.415  0.0878 -0.1424  0.0259
    1DMC     C6 2550   2.614   3.767   2.000  0.6116 -0.2751  0.1353
    1DMC     O1 2551   2.217   2.403   3.408 -0.1022  0.5515  0.3194
    1DMC     C2 2552   2.328   2.360   3.398 -0.1813  0.4160  0.0280
    1DMC     O3 2553   2.402   2.387   3.288  0.3296  0.1446  0.3006
    1DMC     O4 2554   2.369   2.249   3.462  0.0459  0.5581  0.1326
    1DMC     C5 2555   2.332   2.483   3.213 -0.1546 -0.0964  0.4323
    1DMC     C6 2556   2.284   2.210   3.567  0.2220  0.2629  0.1673
    1DMC     O1 2557   0.369   1.912   3.284 -0.1267 -0.2014  0.5239
    1DMC     C2 2558   0.395   1.877   3.172  0.3458  0.4971  0.4068
    1DMC     O3 2559   0.359   1.951   3.067  0.1388  0.4060  0.4129
    1DMC     O4 2560   0.516   1.825   3.144  0.0706 -0.0760  0.2700
    1DMC     C5 2561   0.286   2.065   3.107 -0.2042  0.2318  0.2895
    1DMC     C6 2562   0.590   1.840   3.262  0.2168 -0.3180  0.2096
    1DMC     O1 2563   3.690   2.095   0.435  0.0074  0.2169 -0.5844
    1DMC     C2 2564   3.689   2.211   0.465  0.5846  0.1331 -0.2342
    1DMC     O3 2565   3.624   2.316   0.411  0.1104  0.0825  0.2335
    1DMC     O4 2566   3.732   2.246   0.587 -0.2118  0.0361  0.0796
    1DMC     C5 2567   3.555   2.270   0.297  0.5933 -0.5052  0.1679
    1DMC     C6 2568   3.781   2.136   0.660 -0.1447  0.2424  0.3478
    1DMC     O1 2569   1.133   1.322   1.036  0.1109 -0.7523 -0.0145
    1DMC     C2 2570   1.224   1.267   0.981  0.5318  0.2877 -0.3837
    1DMC     O3 2571   1.231   1.132   0.986 -0.2275  0.2579 -0.0697
    1DMC     O4 2572   1.344   1.316   0.947  0.5195  0.3761 -0.2986
    1DMC     C5 2573   1.124   1.058   1.040  0.1932 -0.3171 -0.0242
    1DMC     C6 2574   1.371   1.432   1.023  0.4685  0.2268 -0.0533
    1DMC     O1 2575   3.890   0.921   3.096 -0.3182 -0.4220 -0.1418
    1DMC     C2 2576   3.980   0.889   3.023  0.2977 -0.2077  0.5079
    1DMC     O3 2577   3.994   0.768   2.967 -0.0695 -0.0433  0.0550
    1DMC     O4 2578   4.089   0.962   2.994  0.5007 -0.7721 -0.1732
    1DMC     C5 2579   3.873   0.697   2.985  0.2381 -0.6520 -0.2337
    1DMC     C6 2580   4.092   1.073   3.081 -1.0101 -0.6183 -0.2890
    1DMC     O1 2581   1.458   0.284   2.684 -0.5279 -0.0247 -0.3835
    1DMC     C2 2582   1.463   0.373   2.765  0.0440 -0.2666 -0.1505
    1DMC     O3 2583   1.494   0.499   2.732  0.3741 -0.3074 -0.0000
    1DMC     O4 2584   1.481   0.340   2.894 -0.3956 -0.2552 -0.0845
    1DMC     C5 2585   1.473   0.521   2.594  0.0691 -0.1624  0.0681
    1DMC     C6 2586   1.526   0.207   2.906  0.5947  0.0772 -0.0780
    1DMC     O1 2587   2.757   2.959   0.789 -0.7413 -0.6585 -0.0022
    1DMC     C2 2588   2.825   2.861   0.788  0.0187 -0.1347 -0.2821
    1DMC     O3 2589   2.778   2.737   0.811 -0.3800  0.1447  0.4197
    1DMC     O4 2590   2.959   2.877   0.787 -0.0092  0.1081 -0.2141
    1DMC     C5 2591   2.638   2.732   0.792 -0.3258  0.1943 -0.0128
    1DMC     C6 2592   3.003   3.011   0.790  0.1672  0.0336  0.5393
    1DMC     O1 2593   3.649   2.973   0.016  0.4109 -0.4682 -0.2946
    1DMC     C2 2594   3.703   2.879   0.068 -0.3672 -0.4138  0.6225
    1DMC     O3 2595   3.813   2.898   0.143  0.1583  0.0170 -0.2377
    1DMC     O4 2596   3.654   2.754   0.075  0.0815 -0.7178 -1.1038
    1DMC     C5 2597   3.830   3.034   0.175  0.3520 -0.0804  0.0774
    1DMC     C6 2598   3.524   2.738   0.024 -0.0831  0.3700 -1.0631
    1DMC     O1 2599   3.139   0.204   2.518  0.3737  0.7292  0.2896
    1DMC     C2 2600   3.069   0.287   2.468 -0.0702  0.0134 -0.3031
    1DMC     O3 2601   3.010   0.277   2.348 -0.3283  0.1872 -0.1920
    1DMC     O4 2602   3.016   0.396   2.526 -0.0228 -0.0505 -0.1385
    1DMC     C5 2603   3.033   0.149   2.295 -0.1469 -0.0094  0.3549
    1DMC     C6 2604   3.037   0.399   2.666 -0.0512 -0.0591 -0.1339
    1DMC     O1 2605   3.709   3.571   1.253  0.3277  0.1206  0.5348
    1DMC     C2 2606   3.600   3.571   1.303 -0.0120 -0.0039 -0.1862
    1DMC     O3 2607   3.519   3.465   1.315 -0.2011  0.1347 -0.2349
    1DMC     O4 2608   3.549   3.668   1.381  0.4631 -0.1861  0.3546
    1DMC     C5 2609   3.576   3.357   1.245 -0.4994 -0.4008  0.3420
    1DMC     C6 2610   3.644   3.763   1.425 -0.0291  0.2823  0.4068
    1DMC     O1 2611   2.062   0.681   1.376 -0.5053 -0.1289  0.3787
    1DMC     C2 2612   2.089   0.675   1.259 -1.1921  0.0220  0.2080
    1DMC     O3 2613   2.079   0.777   1.173  0.2032  0.1508  0.1697
    1DMC     O4 2614   2.138   0.569   1.192 -0.1798  0.2125  0.6316
    1DMC     C5 2615   1.992   0.874   1.227 -0.3065 -0.1758 -0.0487
    1DMC     C6 2616   2.222   0.493   1.277 -0.4351 -0.8072 -0.0157
    1DMC     O1 2617   1.775   1.195   3.106 -0.2298 -0.1982 -0.4648
    1DMC     C2 2618   1.734   1.308   3.110  0.3328 -0.0005 -0.1219
    1DMC     O3 2619   1.815   1.413   3.124 -0.1659  0.4003 -0.2087
    1DMC     O4 2620   1.606   1.337   3.078  0.3297  0.3791  0.2333
    1DMC     C5 2621   1.939   1.357   3.160 -0.5386 -0.3852 -0.1457
    1DMC     C6 2622   1.535   1.220   3.047  0.1532  0.6153 -0.2601
    1DMC     O1 2623   2.761   0.899   2.597  0.1448  0.3926  0.5100
    1DMC     C2 2624   2.660   0.887   2.660 -0.1907  0.4738 -0.0018
    1DMC     O3 2625   2.543   0.916   2.602 -0.1759 -0.0948 -0.3267
    1DMC     O4 2626   2.638   0.799   2.760 -0.1663  0.1758 -0.2573
    1DMC     C5 2627   2.566   0.972   2.475  0.3976  0.2023 -0.0991
    1DMC     C6 2628   2.755   0.734   2.804 -0.0801  0.2053 -0.4415
    1DMC     O1 2629   0.637   0.168   1.059  0.1889 -0.6369 -0.0425
    1DMC     C2 2630   0.744   0.222   1.052 -0.1209 -0.0038  0.0516
    1DMC     O3 2631   0.836   0.184   0.962  0.2112  0.2669  0.2762
    1DMC     O4 2632   0.788   0.316   1.137 -0.1584  0.4238 -0.3936
    1DMC     C5 2633   0.772   0.155   0.839  0.3693  0.7853  0.0645
    1DMC     C6 2634   0.708   0.326   1.253  0.0050 -0.5041 -0.1918
    1DMC     O1 2635   2.445   2.455   1.186 -0.3766 -0.0422 -0.1039
    1DMC     C2 2636   2.328   2.432   1.195 -0.2713 -0.5557 -0.0337
    1DMC     O3 2637   2.245   2.496   1.111  0.2846  0.4423  0.1713
    1DMC     O4 2638   2.275   2.416   1.317 -0.2343  0.4471  0.1191
    1DMC     C5 2639   2.301   2.542   0.990 -0.3558 -0.4667 -0.4771
    1DMC     C6 2640   2.387   2.381   1.394 -0.3237 -0.2509 -0.0624
    1DMC     O1 2641   2.945   3.326   1.302 -0.0409 -0.6794 -0.2006
    1DMC     C2 2642   2.986   3.273   1.202  0.0132  0.2350 -0.6777
    1DMC     O3 2643   3.106   3.212   1.210 -0.1216  0.0725  0.2810
    1DMC     O4 2644   2.926   3.252   1.084 -0.6846 -0.1502 -0.2608
    1DMC     C5 2645   3.166   3.212   1.338 -0.3995 -0.6387  0.4118
    1DMC     C6 2646   2.827   3.349   1.058 -0.3781  0.3203  0.2958
    1DMC     O1 2647   1.394   0.873   1.786 -0.0042  0.0433  0.1801
    1DMC     C2 2648   1.277   0.847   1.792 -0.0164  0.1058  0.2100
    1DMC     O3 2649   1.187   0.944   1.768 -0.2924 -0.3117 -0.4955
    1DMC     O4 2650   1.225   0.726   1.765  0.0605 -0.0053  0.5608
    1DMC     C5 2651   1.240   1.071   1.736 -0.3550 -0.1853 -0.1118
    1DMC     C6 2652   1.312   0.616   1.757 -0.3334 -0.2661 -0.1650
    1DMC     O1 2653   3.842   3.069   0.884  0.2386 -0.1765  0.1314
    1DMC     C2 2654   3.812   3.183   0.908 -0.3081 -0.3596  0.3242
    1DMC     O3 2655   3.901   3.281   0.930 -0.6089  0.0452 -0.2390
    1DMC     O4 2656   3.701   3.212   0.977 -0.2140 -0.2331  0.4226
    1DMC     C5 2657   4.032   3.246   0.893 -0.3101  0.3903  0.4702
    1DMC     C6 2658   3.617   3.099   0.991 -0.3338 -0.1549  0.3316
    1DMC     O1 2659   1.206   0.616   0.977 -0.0927  0.2702 -0.3402
    1DMC     C2 2660   1.129   0.533   0.937  0.2620 -0.3415  0.2260
    1DMC     O3 2661   1.001   0.521   0.975  0.0667  0.1364 -0.2644
    1DMC     O4 2662   1.160   0.452   0.833  0.1884 -0.0446 -0.0285
    1DMC     C5 2663   0.944   0.614   1.064 -0.0666  0.1876 -0.4023
    1DMC     C6 2664   1.292   0.456   0.786  0.0589 -0.0791 -0.3946
    1DMC     O1 2665   0.758   3.722   0.693  0.0905 -0.1130 -0.7990
    1DMC     C2 2666   0.833   3.659   0.762 -0.1116  0.3323 -0.1582
    1DMC     O3 2667   0.922   3.570   0.713 -0.2440 -0.0471  0.2822
    1DMC     O4 2668   0.822   3.649   0.895  0.0367 -0.5592 -0.2018
    1DMC     C5 2669   0.928   3.577   0.573  0.3599  0.0568  0.3097
    1DMC     C6 2670   0.739   3.736   0.969  0.5870 -0.3448  0.1722
    1DMC     O1 2671   3.972   2.779   2.358 -0.5527  0.0393 -0.2300
    1DMC     C2 2672   4.050   2.691   2.335 -0.6845  0.0694 -0.8260
    1DMC     O3 2673   4.026   2.559   2.337 -0.0702 -0.0444 -0.4297
    1DMC     O4 2674   4.181   2.713   2.311 -0.5572  0.0266 -0.1961
    1DMC     C5 2675   3.897   2.537   2.389  0.1936  0.5715  0.4986
    1DMC     C6 2676   4.223   2.847   2.326  0.1221 -0.2329  0.2522
    1DMC     O1 2677   1.783   0.120   0.568  0.4372  0.2005 -0.3448
    1DMC     C2 2678   1.698   0.118   0.653  0.0963 -0.1704 -0.6893
    1DMC     O3 2679   1.727   0.053   0.767  0.2155 -0.2675 -0.7738
    1DMC     O4 2680   1.576   0.173   0.646  0.2052  0.1290 -0.2287
    1DMC     C5 2681   1.864   0.021   0.765  0.3201  0.1725 -0.7590
    1DMC     C6 2682   1.537   0.238   0.528  0.0975  0.2470 -0.1282
    1DMC     O1 2683   1.043   3.575   1.961  0.3299  1.0802  0.6414
    1DMC     C2 2684   1.029   3.657   1.875 -0.1583  0.0061 -0.3299
    1DMC     O3 2685   0.908   3.696   1.830 -0.0489 -0.1208 -0.7301
    1DMC     O4 2686   1.119   3.700   1.785  0.0034  0.4059  0.0200
    1DMC     C5 2687   0.803   3.645   1.910  0.5705  0.1196  0.2442
    1DMC     C6 2688   1.243   3.632   1.795 -0.0990  0.1218 -0.6022
    1DMC     O1 2689   0.123   0.342   2.685 -0.4378  0.4008  0.2326
    1DMC     C2 2690   0.088   0.240   2.739  0.4075  0.1955  0.4079
    1DMC     O3 2691   0.161   0.128   2.731  0.0738  0.0029 -0.0177
    1DMC     O4 2692  -0.021   0.227   2.816 -0.0393  0.0957 -0.2287
    1DMC     C5 2693   0.272   0.164   2.652  0.2880 -1.0663 -0.2211
    1DMC     C6 2694  -0.103   0.342   2.817  0.0176  0.1361 -0.1777
    1DMC     O1 2695   3.198   0.977   1.769 -0.5019  0.6487  0.5856
    1DMC     C2 2696   3.284   0.976   1.853  0.0582 -0.0684  0.0197
    1DMC     O3 2697   3.398   0.904   1.855  0.4203  0.4886 -0.3825
    1DMC     O4 2698   3.254   1.000   1.982 -0.3387 -0.8098  0.0717
    1DMC     C5 2699   3.433   0.828   1.742  0.3139  0.0240 -0.1071
    1DMC     C6 2700   3.122   1.048   1.983 -0.1424 -0.2564 -0.2871
    1DMC     O1 2701   3.916   1.223   1.985 -0.6723  0.2103  0.3394
    1DMC     C2 2702   3.991   1.308   2.024 -0.0291  0.0652 -0.5463
    1DMC     O3 2703   3.968   1.440   2.019 -0.0865  0.0684 -0.2463
    1DMC     O4 2704   4.119   1.287   2.061 -0.1161  0.2238 -0.1445
    1DMC     C5 2705   3.833   1.450   1.981 -0.1242  0.0778 -0.1107
    1DMC     C6 2706   4.151   1.149   2.057  0.3997  0.3463 -0.2764
    1DMC     O1 2707   3.918   1.552   1.398  0.0400 -0.2146  0.2956
    1DMC     C2 2708   4.028   1.589   1.369  0.2793 -1.0281  0.1471
    1DMC     O3 2709   4.103   1.665   1.450 -0.2574 -0.0842 -0.2280
    1DMC     O4 2710   4.104   1.521   1.281  0.5484 -0.2306 -0.2456
    1DMC     C5 2711   4.040   1.699   1.571 -0.3367 -0.8034 -0.0642
    1DMC     C6 2712   4.051   1.392   1.258  0.0943 -0.0807 -0.0431
    1DMC     O1 2713   0.813   2.685   2.895  0.2573 -0.2788  0.2077
    1DMC     C2 2714   0.859   2.689   2.785 -0.2387 -0.3666 -0.0063
    1DMC     O3 2715   0.930   2.594   2.722  0.3178  0.1946 -0.2349
    1DMC     O4 2716   0.830   2.782   2.692 -0.4234 -0.4151  0.0028
    1DMC     C5 2717   0.936   2.474   2.795  0.5021  0.0942 -0.4147
    1DMC     C6 2718   0.752   2.875   2.764  0.4174  0.2379  0.0930
    1DMC     O1 2719   2.791   0.071   0.077 -0.6772  0.6196  0.4120
    1DMC     C2 2720   2.744   0.160   0.012  0.1749  0.6011 -0.2522
    1DMC     O3 2721   2.697   0.276   0.061 -0.0200  0.5464 -0.3082
    1DMC     O4 2722   2.688   0.143  -0.109  0.0720 -0.1158 -0.1089
    1DMC     C5 2723   2.706   0.278   0.202  0.1506 -0.4665 -0.2982
    1DMC     C6 2724   2.656   0.012  -0.148 -0.8093  0.1018 -0.1304
    1DMC     O1 2725   3.249   2.387   1.547 -0.2962  0.2805 -0.3033
    1DMC     C2 2726   3.311   2.490   1.534  0.4603 -0.1318 -0.0306
    1DMC     O3 2727   3.351   2.565   1.638  0.1674  0.4498 -0.3336
    1DMC     O4 2728   3.339   2.553   1.419  0.5527 -0.2425 -0.0694
    1DMC     C5 2729   3.335   2.502   1.762  0.0038  0.2041 -0.4790
    1DMC     C6 2730   3.334   2.466   1.308 -0.3456 -0.0398 -0.1956
    1DMC     O1 2731   0.539   1.381   0.960  0.2593 -0.5121 -0.2597
    1DMC     C2 2732   0.588   1.306   0.880  0.8963 -0.0530 -0.3049
    1DMC     O3 2733   0.690   1.222   0.906  0.4355 -0.6055 -0.2705
    1DMC     O4 2734   0.577   1.309   0.746 -0.2961 -0.0465 -0.2118
    1DMC     C5 2735   0.727   1.232   1.042 -0.6010  0.6688 -0.0636
    1DMC     C6 2736   0.556   1.437   0.690 -0.2429  0.1602  0.2340
    1DMC     O1 2737   2.680   3.010   3.926 -0.1724 -0.8428 -0.3325
    1DMC     C2 2738   2.735   2.956   4.017 -0.1664 -0.2935 -0.0075
    1DMC     O3 2739   2.861   2.987   4.052 -0.6149  0.8731  0.6447
    1DMC     O4 2740   2.682   2.862   4.098 -0.0564 -0.5398 -0.2203
    1DMC     C5 2741   2.911   3.078   3.956  0.3155  0.1158  0.3886
    1DMC     C6 2742   2.547   2.839   4.065 -0.2203 -0.0134  0.0703
    1DMC     O1 2743   3.764   2.794   3.378 -0.0940  0.2548 -0.8307
    1DMC     C2 2744   3.875   2.815   3.420 -0.2174 -0.2099 -0.2534
    1DMC     O3 2745   3.908   2.918   3.499 -0.2054 -0.6304  0.2935
    1DMC     O4 2746   3.987   2.741   3.406  0.0684  0.1260  0.2627
    1DMC     C5 2747   3.797   2.996   3.535  0.0621 -0.0940 -0.0378
    1DMC     C6 2748   3.974   2.634   3.315  0.5602  0.2916 -0.0075
    1DMC     O1 2749   3.627   2.777   0.663 -0.6413  0.3840 -0.3926
    1DMC     C2 2750   3.728   2.764   0.600 -0.4594 -0.5432  0.0738
    1DMC     O3 2751   3.842   2.706   0.642 -0.1656 -0.0232  0.0120
    1DMC     O4 2752   3.734   2.753   0.466  0.0150 -0.2391  0.0674
    1DMC     C5 2753   3.838   2.684   0.782 -0.0545 -0.1931 -0.0118
    1DMC     C6 2754   3.607   2.793   0.422  0.4357  0.3830 -0.5992
    1DMC     O1 2755   2.287   2.074   2.354 -0.2548 -0.1020 -0.3632
    1DMC     C2 2756   2.174   2.033   2.347 -0.5982  0.6931  0.3527
    1DMC     O3 2757   2.099   2.063   2.240 -0.4941 -0.1557  0.0364
    1DMC     O4 2758   2.108   1.941   2.420 -0.2563  0.2419  0.0968
    1DMC     C5 2759   2.176   2.135   2.148  0.0995 -0.2051  0.4899
    1DMC     C6 2760   2.209   1.897   2.509  0.1976  0.3217 -0.3709
    1DMC     O1 2761   2.305   2.699   3.605  0.1179 -0.7432 -0.7145
    1DMC     C2 2762   2.188   2.672   3.608 -0.0175 -0.1454 -0.5328
    1DMC     O3 2763   2.117   2.690   3.496 -0.7501 -0.3867 -0.1102
    1DMC     O4 2764   2.109   2.682   3.716  0.6953 -0.1835 -0.0010
    1DMC     C5 2765   2.193   2.734   3.385 -0.2832 -0.0842  0.3245
    1DMC     C6 2766   2.192   2.706   3.828 -0.0119  0.1553  0.4542
    1DMC     O1 2767   1.697   3.489   3.894 -0.2727 -0.1330  0.1080
    1DMC     C2 2768   1.749   3.556   3.809  0.4788 -0.3670  0.3778
    1DMC     O3 2769   1.796   3.680   3.830 -0.0690 -0.0939  0.0167
    1DMC     O4 2770   1.808   3.505   3.700 -0.2796  0.1359 -0.2730
    1DMC     C5 2771   1.800   3.704   3.969 -0.1378  0.0486 -0.0059
    1DMC     C6 2772   1.789   3.366   3.693 -0.0234  0.0958 -0.1859
    1DMC     O1 2773   0.320   3.626   2.617  0.3068  0.5223  0.5192
    1DMC     C2 2774   0.387   3.675   2.530 -0.5338 -0.4039 -0.6833
    1DMC     O3 2775   0.346   3.761   2.436  0.2143  0.2340 -0.4356
    1DMC     O4 2776   0.520   3.656   2.517 -0.3768  0.3402 -0.2059
    1DMC     C5 2777   0.206   3.772   2.434  0.1953  0.0901  0.0648
    1DMC     C6 2778   0.581   3.569   2.610 -0.2349  0.5102 -0.1392
    1DMC     O1 2779   0.234   0.001   3.838  0.7537  0.2625  0.4496
    1DMC     C2 2780   0.254   0.018   3.721 -0.0543  0.0648  0.2798
    1DMC     O3 2781   0.157   0.047   3.633  0.2170  0.5368  0.1363
    1DMC     O4 2782   0.376   0.007   3.666  0.0109  0.5224  0.3352
    1DMC     C5 2783   0.028   0.040   3.690  0.1780  0.0979 -0.0042
    1DMC     C6 2784   0.476  -0.022   3.760  0.4919  0.5651 -0.1587
    1DMC     O1 2785   3.520   1.854   2.315  0.0932 -0.2320  0.1893
    1DMC     C2 2786   3.404   1.858   2.287  0.2354 -0.3290 -0.4174
    1DMC     O3 2787   3.341   1.750   2.237  0.0647 -0.4974  0.1625
    1DMC     O4 2788   3.326   1.965   2.261  0.2316 -0.2289  0.0034
    1DMC     C5 2789   3.425   1.639   2.256  0.1525 -0.4449  0.0795
    1DMC     C6 2790   3.370   2.096   2.285 -0.3335 -0.0136 -0.1240
    1DMC     O1 2791   2.972   2.746   1.391 -0.4566  0.5309  0.3829
    1DMC     C2 2792   2.934   2.633   1.404 -0.0613  0.3268 -0.2006
    1DMC     O3 2793   2.903   2.555   1.298  0.0366  0.0292 -0.0105
    1DMC     O4 2794   2.953   2.567   1.519 -0.1746  0.4380 -0.1188
    1DMC     C5 2795   2.903   2.614   1.170  0.3075 -0.0972 -0.0697
    1DMC     C6 2796   3.010   2.662   1.607 -0.4417 -0.1899  0.7468
    1DMC     O1 2797   1.061   1.298   1.491  0.2651  0.7194  0.1770
    1DMC     C2 2798   1.067   1.377   1.400  0.5567  0.1457 -0.3091
    1DMC     O3 2799   1.177   1.395   1.326  0.7061  0.5452  0.0091
    1DMC     O4 2800   0.999   1.493   1.399 -0.1557 -0.2599  0.1216
    1DMC     C5 2801   1.275   1.298   1.358  0.1163 -0.0175  0.1247
    1DMC     C6 2802   0.893   1.503   1.492  0.0838 -0.6293  0.4424
    1DMC     O1 2803   2.320   0.857   2.025  0.1304  0.6764 -0.4464
    1DMC     C2 2804   2.228   0.781   2.007  0.2011  0.4752  0.0328
    1DMC     O3 2805   2.103   0.823   1.980 -0.0216  0.1363  0.5198
    1DMC     O4 2806   2.243   0.651   1.980 -0.0742  0.3887  0.2901
    1DMC     C5 2807   2.079   0.962   1.980 -0.5553  0.0444  0.3428
    1DMC     C6 2808   2.371   0.604   2.016 -0.4741 -0.6817  0.3556
    1DMC     O1 2809   1.149   3.504   0.010 -0.5811 -0.0862 -0.1626
    1DMC     C2 2810   1.066   3.568   0.068  0.1819  0.7909 -0.0230
    1DMC     O3 2811   0.957   3.618   0.006 -0.0041  0.2567 -0.1309
    1DMC     O4 2812   1.034   3.549   0.197 -0.3425 -0.1164 -0.2823
    1DMC     C5 2813   0.957   3.600  -0.134  0.2262  0.5005 -0.1634
    1DMC     C6 2814   1.112   3.454   0.266 -0.2132 -0.0360 -0.3186
    1DMC     O1 2815   2.411   1.124   3.635  0.3385 -0.3975 -0.3446
    1DMC     C2 2816   2.483   1.212   3.597  0.1828 -0.1159  0.0037
    1DMC     O3 2817   2.520   1.316   3.673  0.3635 -0.2925  0.1592
    1DMC     O4 2818   2.533   1.235   3.475 -0.7405 -0.5693 -0.4652
    1DMC     C5 2819   2.497   1.303   3.812 -0.2070 -0.4546  0.0507
    1DMC     C6 2820   2.486   1.139   3.383  0.0480 -1.0683 -0.3603
    1DMC     O1 2821   0.898   0.785   3.442 -0.1689 -0.6757 -0.2907
    1DMC     C2 2822   0.778   0.788   3.448 -0.1493  0.4460 -0.1729
    1DMC     O3 2823   0.699   0.878   3.386 -0.1837  0.2915 -0.3553
    1DMC     O4 2824   0.703   0.705   3.522  0.2158  0.1576 -0.1209
    1DMC     C5 2825   0.786   0.953   3.306 -0.0186  0.2256 -0.2386
    1DMC     C6 2826   0.773   0.607   3.595 -0.1827 -0.2629 -0.2962
    1DMC     O1 2827   2.944   3.251   0.539  0.8131  0.4457 -0.2094
    1DMC     C2 2828   2.896   3.360   0.552  0.3355  0.1204  0.8710
    1DMC     O3 2829   2.791   3.395   0.628 -0.3139 -0.1266  0.0979
    1DMC     O4 2830   2.968   3.469   0.520 -0.2078  0.0875 -0.5311
    1DMC     C5 2831   2.701   3.293   0.668 -0.4022 -0.1259 -0.0962
    1DMC     C6 2832   3.091   3.424   0.469  0.4062  0.1642  0.8288
    1DMC     O1 2833   0.018   2.879   2.939 -0.2966  0.1340  0.1714
    1DMC     C2 2834  -0.081   2.867   2.872  0.0323 -0.2860 -0.2489
    1DMC     O3 2835  -0.203   2.840   2.922  0.0580  0.2235  0.0925
    1DMC     O4 2836  -0.093   2.855   2.739  0.5175  0.0117 -0.3203
    1DMC     C5 2837  -0.215   2.852   3.063 -0.2499  0.4798  0.0479
    1DMC     C6 2838   0.028   2.866   2.668  0.6471  0.0645 -0.0932
    1DMC     O1 2839   1.290   2.508   0.734  0.8082 -0.2208 -0.1870
    1DMC     C2 2840   1.316   2.517   0.617 -0.3041  0.0032 -0.4232
    1DMC     O3 2841   1.313   2.408   0.539  0.6447 -0.0876 -0.3340
    1DMC     O4 2842   1.315   2.632   0.546 -0.6741  0.0686 -0.3185
    1DMC     C5 2843   1.319   2.290   0.616  0.3036  0.0140 -0.1541
    1DMC     C6 2844   1.343   2.729   0.644 -0.2909 -0.6715  0.3186
    1DMC     O1 2845   0.585   0.372   2.266 -0.7123  0.2922  0.0967
    1DMC     C2 2846   0.537   0.472   2.219  0.1703  0.6441 -0.0750
    1DMC     O3 2847   0.427   0.476   2.142  0.1177 -0.6627 -0.0998
    1DMC     O4 2848   0.588   0.595   2.229  0.2052  0.6258 -0.0280
    1DMC     C5 2849   0.361   0.351   2.139 -0.3175 -0.4359 -0.0935
    1DMC     C6 2850   0.680   0.593   2.337 -0.4688 -0.5710  0.5369
    1DMC     O1 2851   1.159   3.301   0.545 -0.0020  0.0773 -0.5016
    1DMC     C2 2852   1.195   3.261   0.652 -0.3701 -0.3146 -0.5217
    1DMC     O3 2853   1.129   3.169   0.724 -0.0229  0.0192  0.2338
    1DMC     O4 2854   1.310   3.295   0.712 -0.2867  0.0239 -0.8652
    1DMC     C5 2855   1.017   3.110   0.662  0.0404  0.4983 -0.3488
    1DMC     C6 2856   1.392   3.395   0.657  0.5465  0.0374  0.3521
    1DMC     O1 2857   3.418   1.899   1.915 -0.0741 -0.1754 -0.3915
    1DMC     C2 2858   3.527   1.922   1.872  0.0193  0.2542  0.0618
    1DMC     O3 2859   3.639   1.854   1.901 -0.4765 -0.4412  0.3782
    1DMC     O4 2860   3.552   2.041   1.813  0.0586  0.0905 -0.2585
    1DMC     C5 2861   3.612   1.735   1.971 -0.4705 -0.9403 -0.4593
    1DMC     C6 2862   3.434   2.106   1.772 -0.1938 -0.3444 -0.2327
    1DMC     O1 2863   0.117   3.188   0.075  0.1467  0.5411  0.3179
    1DMC     C2 2864   0.216   3.197   0.007  0.1390 -0.3930  0.1723
    1DMC     O3 2865   0.220   3.132  -0.110 -0.0594  0.0598 -0.0913
    1DMC     O4 2866   0.334   3.214   0.069  0.2542 -0.1603 -0.1065
    1DMC     C5 2867   0.097   3.072  -0.143 -0.3125  0.3437  0.3314
    1DMC     C6 2868   0.332   3.262   0.202 -0.2003  0.1865 -0.2356
    1DMC     O1 2869   2.178   3.025   3.689  0.3861  0.1760 -0.3141
    1DMC     C2 2870   2.120   3.122   3.732  1.0847  0.5271 -0.1469
    1DMC     O3 2871   2.063   3.206   3.645 -0.0658  0.0572  0.1348
    1DMC     O4 2872   2.130   3.165   3.859 -0.0196  0.1399  0.0798
    1DMC     C5 2873   2.061   3.133   3.524  0.1046 -0.1947  0.2834
    1DMC     C6 2874   2.219   3.096   3.944 -0.1762 -0.4317 -0.2182
    1DMC     O1 2875   0.159   3.904   0.772  0.1895  0.2268  0.5016
    1DMC     C2 2876   0.259   3.868   0.716 -0.0406 -0.3598  0.4650
    1DMC     O3 2877   0.387   3.903   0.739 -0.1285  0.2648  0.0109
    1DMC     O4 2878   0.253   3.787   0.609 -0.1205  0.2065  0.0362
    1DMC     C5 2879   0.402   4.023   0.810 -1.0009  0.2821  0.1841
    1DMC     C6 2880   0.122   3.738   0.588 -0.1980  0.4475 -0.0407
    1DMC     O1 2881   1.198   2.006   3.909 -0.0171  0.5408  0.1303
    1DMC     C2 2882   1.137   2.017   4.012  0.0790 -0.1563  0.2673
    1DMC     O3 2883   1.004   2.000   4.023  0.0252 -0.0630 -0.1857
    1DMC     O4 2884   1.195   2.041   4.131 -0.1593 -0.4719  0.4485
    1DMC     C5 2885   0.941   1.992   3.898 -0.3391 -0.3162  0.0106
    1DMC     C6 2886   1.334   2.058   4.115 -0.1986  0.0453  0.6452
    1DMC     O1 2887   1.358   3.503   1.530 -0.1156  0.7357  0.1149
    1DMC     C2 2888   1.445   3.488   1.448 -0.5990  0.2281 -0.3092
    1DMC     O3 2889   1.483   3.374   1.389  0.0486  0.1808  0.1844
    1DMC     O4 2890   1.518   3.593   1.408 -0.1678 -0.0090 -0.1514
    1DMC     C5 2891   1.396   3.275   1.439 -0.1592  0.1604 -0.2094
    1DMC     C6 2892   1.465   3.705   1.476  0.2792  0.3496 -0.3867
    1DMC     O1 2893   3.896   2.220   3.947 -0.0913 -0.2286 -0.1671
    1DMC     C2 2894   3.880   2.282   4.048  0.9450 -0.0530 -0.1008
    1DMC     O3 2895   3.844   2.409   4.071 -0.5660 -0.4790 -0.0080
    1DMC     O4 2896   3.904   2.217   4.164 -0.1595 -0.1623  0.0802
    1DMC     C5 2897   3.845   2.486   3.953 -0.0326 -0.2882  0.1157
    1DMC     C6 2898   3.932   2.079   4.159 -0.0246 -0.1489  0.4901
    1DMC     O1 2899   0.639   3.158   2.142 -0.3506  0.6343 -0.0532
    1DMC     C2 2900   0.531   3.145   2.193 -0.2085 -0.4649 -0.0216
    1DMC     O3 2901   0.479   3.022   2.208 -0.3433 -0.3409  0.5250
    1DMC     O4 2902   0.480   3.241   2.271  0.5446 -0.3967  0.3858
    1DMC     C5 2903   0.588   2.932   2.198  0.1348  0.3383 -0.4866
    1DMC     C6 2904   0.567   3.350   2.290  0.2971 -0.1688  0.2129
    1DMC     O1 2905   1.738   2.698   3.775  0.4203 -0.1292  0.2895
    1DMC     C2 2906   1.763   2.789   3.849 -0.3221  0.4051 -0.1091
    1DMC     O3 2907   1.847   2.890   3.820 -0.1541  0.2781 -0.0625
    1DMC     O4 2908   1.735   2.783   3.980 -0.2662  0.7381 -0.0798
    1DMC     C5 2909   1.872   2.889   3.681 -0.2044  0.3988 -0.0719
    1DMC     C6 2910   1.698   2.651   4.015 -0.2027  0.7347 -0.0254
    1DMC     O1 2911   3.822   0.840   0.979  0.5148 -0.4764 -0.4605
    1DMC     C2 2912   3.893   0.925   1.025 -0.0615 -0.1823 -0.0979
    1DMC     O3 2913   3.860   1.052   1.053 -0.2172 -0.2829  0.1812
    1DMC     O4 2914   4.014   0.892   1.072  0.0928 -0.3433 -0.5996
    1DMC     C5 2915   3.724   1.074   1.022 -0.0602  0.7718  0.2000
    1DMC     C6 2916   4.031   0.752   1.065  0.3827 -0.3325 -0.1925
    1DMC     O1 2917   0.045   3.432   3.794 -0.6185 -0.2946  0.4580
    1DMC     C2 2918  -0.037   3.513   3.828 -0.0348  0.6030 -0.2578
    1DMC     O3 2919  -0.164   3.474   3.844  0.1960 -0.1186 -0.1778
    1DMC     O4 2920  -0.013   3.625   3.898  0.0478  0.2433  0.2928
    1DMC     C5 2921  -0.186   3.345   3.791 -0.5160  0.0176 -0.2188
    1DMC     C6 2922   0.118   3.655   3.939  0.0724 -0.0507  0.4310
    1DMC     O1 2923   2.902   1.260   3.527  0.2958  0.5940 -0.2030
    1DMC     C2 2924   2.910   1.362   3.589 -0.5046  0.2025  0.5613
    1DMC     O3 2925   2.840   1.475   3.567 -0.7283  0.0585  0.5196
    1DMC     O4 2926   2.986   1.368   3.699  0.1052 -0.4739  0.1889
    1DMC     C5 2927   2.759   1.459   3.453 -0.1283 -0.9383  0.2211
    1DMC     C6 2928   3.026   1.240   3.742 -0.8171 -0.6265  0.6236
    1DMC     O1 2929   0.466   3.324   3.508  0.4186  0.6045 -0.0926
    1DMC     C2 2930   0.390   3.328   3.415  0.3059  1.1010  0.0207
    1DMC     O3 2931   0.422   3.378   3.295  0.2533  0.0555 -0.4353
    1DMC     O4 2932   0.256   3.324   3.433  0.3055 -0.0326 -0.1743
    1DMC     C5 2933   0.560   3.361   3.276  0.4075  0.6571  0.1393
    1DMC     C6 2934   0.201   3.284   3.556 -0.0089  0.9832  0.0249
    1DMC     O1 2935   2.991   0.256   1.457  0.0262  0.5122  0.0375
    1DMC     C2 2936   3.101   0.212   1.439 -0.2689 -0.4407  0.5330
    1DMC     O3 2937   3.130   0.090   1.391  0.1402  0.0366 -0.4574
    1DMC     O4 2938   3.217   0.265   1.483 -0.3795  0.0947  0.1831
    1DMC     C5 2939   3.025   0.018   1.331 -0.3810  0.3217  0.1053
    1DMC     C6 2940   3.203   0.400   1.524 -0.2556  0.3410 -0.5682
    1DMC     O1 2941   1.019   3.570   3.110  0.6419  0.6733 -0.3073
    1DMC     C2 2942   1.136   3.573   3.138  0.5464  0.3271  0.1494
    1DMC     O3 2943   1.235   3.542   3.052 -0.0183 -1.0431 -0.0255
    1DMC     O4 2944   1.190   3.582   3.261  0.5252 -0.2524  0.2034
    1DMC     C5 2945   1.174   3.511   2.929  0.5193 -0.3681 -0.4725
    1DMC     C6 2946   1.099   3.568   3.368  0.1628 -0.5396 -0.1372
    1DMC     O1 2947   0.756   1.643   0.054 -0.3054  0.0358  0.1120
    1DMC     C2 2948   0.642   1.610   0.074 -0.4845  0.4274 -0.2388
    1DMC     O3 2949   0.601   1.508   0.152  0.5547  0.0309 -0.1912
    1DMC     O4 2950   0.536   1.650   0.003 -0.6090  0.3555 -0.0933
    1DMC     C5 2951   0.711   1.442   0.209  0.2929 -0.3051 -0.0723
    1DMC     C6 2952   0.576   1.748  -0.091 -0.0491  0.1916 -0.0279
    1DMC     O1 2953   2.065   1.175   0.360  0.1278  0.1165  0.5042
    1DMC     C2 2954   2.106   1.081   0.422 -0.3267 -0.1935  0.3412
    1DMC     O3 2955   2.138   1.085   0.553 -0.1594  0.1793  0.2921
    1DMC     O4 2956   2.136   0.959   0.375  0.3446  0.2189 -0.3208
    1DMC     C5 2957   2.076   1.195   0.616 -0.3633  0.3061 -0.1278
    1DMC     C6 2958   2.119   0.952   0.236 -0.4179 -0.5008 -0.1983
    1DMC     O1 2959   2.353   2.898   0.917  0.0660  0.1624  0.3884
    1DMC     C2 2960   2.298   3.002   0.938  0.4866  0.5066 -0.2160
    1DMC     O3 2961   2.175   3.035   0.895  0.1148 -0.6001 -0.0299
    1DMC     O4 2962   2.363   3.108   0.990  0.1744  0.3799  0.4440
    1DMC     C5 2963   2.108   2.934   0.822  0.0764 -0.5075 -0.1247
    1DMC     C6 2964   2.498   3.072   1.006  0.1865  0.1449 -0.1472
    1DMC     O1 2965   2.037   1.164   1.412 -0.3713  0.0068  0.6671
    1DMC     C2 2966   2.083   1.114   1.511 -0.1410 -0.2081  0.4535
    1DMC     O3 2967   2.016   1.015   1.572 -0.0761 -0.3549  0.2874
    1DMC     O4 2968   2.213   1.109   1.543  0.0297  0.1361 -0.1617
    1DMC     C5 2969   1.882   1.010   1.529  0.0862 -0.4800 -0.2097
    1DMC     C6 2970   2.306   1.159   1.449 -0.0104  0.1242 -0.2072
    1DMC     O1 2971   2.700   0.908   3.111 -0.0383 -0.3401  0.0530
    1DMC     C2 2972   2.650   1.015   3.093 -0.2903 -0.5043 -0.2185
    1DMC     O3 2973   2.694   1.123   3.159 -0.4619 -0.5937  0.0424
    1DMC     O4 2974   2.520   1.034   3.064 -0.2346  0.0531 -0.1138
    1DMC     C5 2975   2.825   1.102   3.208 -0.3497  0.7771  0.3835
    1DMC     C6 2976   2.476   0.909   3.016 -0.2840 -0.0109  0.0937
    1DMC     O1 2977   0.279   1.244   1.730 -0.2672  0.0263 -0.0337
    1DMC     C2 2978   0.277   1.295   1.621 -0.1235  0.2823  0.0815
    1DMC     O3 2979   0.163   1.326   1.556 -0.2077  0.3304  0.2529
    1DMC     O4 2980   0.373   1.272   1.529 -0.1362  0.5786 -0.0047
    1DMC     C5 2981   0.055   1.275   1.631 -0.1023 -0.3825 -0.0703
    1DMC     C6 2982   0.467   1.174   1.565 -1.0515 -0.1721  0.3923
    1DMC     O1 2983   0.544   1.489   3.646  0.2219  0.2529 -0.3245
    1DMC     C2 2984   0.572   1.487   3.529  0.6133  0.0643 -0.2292
    1DMC     O3 2985   0.500   1.574   3.455  0.2615  0.1213  0.1762
    1DMC     O4 2986   0.630   1.389   3.457 -0.0279 -0.2795 -0.2844
    1DMC     C5 2987   0.419   1.656   3.536 -0.3317 -0.1279 -0.1598
    1DMC     C6 2988   0.700   1.302   3.543  0.2073  0.3677  0.1931
    1DMC     O1 2989   0.634   1.368   2.001  0.0115  0.1722 -0.0324
    1DMC     C2 2990   0.529   1.341   2.052 -0.0493 -0.4419 -0.4634
    1DMC     O3 2991   0.528   1.231   2.129  0.4859  0.0511  0.2694
    1DMC     O4 2992   0.444   1.442   2.079  0.4986 -0.0277 -0.2455
    1DMC     C5 2993   0.647   1.156   2.123  0.3261 -0.2085  0.3414
    1DMC     C6 2994   0.471   1.571   2.030 -0.4962  0.2393 -0.1101
    1DMC     O1 2995   0.779   2.237   1.473 -0.0707  0.3193  0.5628
    1DMC     C2 2996   0.890   2.203   1.440 -0.4353  0.1115 -0.5083
    1DMC     O3 2997   0.956   2.287   1.359  0.3568  0.1564  0.1677
    1DMC     O4 2998   0.977   2.126   1.507 -0.2908  0.4749 -0.2718
    1DMC     C5 2999   0.871   2.398   1.336 -0.2253 -0.2412  0.3811
    1DMC     C6 3000   0.906   2.056   1.608 -0.1262  0.2916 -0.2824
    1DMC     O1 3001   3.914   0.852   0.088  0.0605 -0.0418 -0.4717
    1DMC     C2 3002   3.868   0.753   0.036 -0.0868 -0.0402 -0.3447
    1DMC     O3 3003   3.940   0.680  -0.051 -0.0678 -0.1930 -0.2021
    1DMC     O4 3004   3.746   0.705   0.064  0.3745 -0.7246  0.5403
    1DMC     C5 3005   4.065   0.743  -0.071 -0.1680  0.1118  0.1076
    1DMC     C6 3006   3.685   0.770   0.173 -0.2626 -0.2183 -0.1118
    1DMC     O1 3007   0.357   0.795   3.287 -0.3004  0.1448 -0.7511
    1DMC     C2 3008   0.323   0.685   3.323  0.7355  0.1462  0.3152
    1DMC     O3 3009   0.399   0.577   3.300  0.3311 -0.1415  0.3314
    1DMC     O4 3010   0.202   0.658   3.373  0.4636  0.2828 -0.2596
    1DMC     C5 3011   0.532   0.611   3.267  0.3430 -0.1078  0.4135
    1DMC     C6 3012   0.118   0.769   3.394 -0.2667 -0.3813  0.4359
    1DMC     O1 3013   3.157   3.557   0.882 -0.5458  0.4081  0.2692
    1DMC     C2 3014   3.195   3.559   0.996 -0.0171  0.1202  0.1020
    1DMC     O3 3015   3.299   3.492   1.050 -0.0393 -0.1311 -0.1660
    1DMC     O4 3016   3.150   3.655   1.078  0.0523  0.1363  0.1215
    1DMC     C5 3017   3.364   3.410   0.955 -0.2117 -0.2201 -0.2074
    1DMC     C6 3018   3.041   3.726   1.023  0.4596  0.3886 -0.3584
    1DMC     O1 3019   3.611   1.598   1.098 -0.0129  0.0510  0.7065
    1DMC     C2 3020   3.632   1.485   1.131 -0.0839 -0.2348 -0.1830
    1DMC     O3 3021   3.689   1.391   1.054  0.2482 -0.2671  0.0980
    1DMC     O4 3022   3.549   1.432   1.224  0.0491  0.2393  0.2081
    1DMC     C5 3023   3.720   1.448   0.929 -0.9278  0.8287  0.2865
    1DMC     C6 3024   3.478   1.536   1.289 -0.4898  0.2148 -0.3339
    1DMC     O1 3025   0.771   0.075   1.472 -0.0654  0.0432 -0.7437
    1DMC     C2 3026   0.793  -0.033   1.520  0.2926  0.3056 -0.3106
    1DMC     O3 3027   0.856  -0.060   1.635  0.2055  0.2156 -0.2846
    1DMC     O4 3028   0.769  -0.147   1.452  0.0388  0.3788 -0.3462
    1DMC     C5 3029   0.876   0.062   1.702 -0.1973 -0.0226  0.2855
    1DMC     C6 3030   0.726  -0.114   1.322 -0.5146 -0.3206 -0.3457
    1DMC     O1 3031   0.242   1.346   0.518  0.2554 -0.1135  0.0638
    1DMC     C2 3032   0.219   1.305   0.407  0.4577  0.1822 -0.0906
    1DMC     O3 3033   0.301   1.235   0.328 -0.1918 -0.2803 -0.3658
    1DMC     O4 3034   0.111   1.355   0.344  0.1843 -0.1306  0.1231
    1DMC     C5 3035   0.412   1.194   0.404 -0.1342  1.2809  0.4218
    1DMC     C6 3036   0.009   1.383   0.436 -0.4572  0.5072 -0.7721
    1DMC     O1 3037   2.944   3.076   2.474  0.0668 -0.2793 -0.4916
    1DMC     C2 3038   3.031   3.102   2.396  0.4593  0.2479  0.1114
    1DMC     O3 3039   3.149   3.041   2.419 -0.1071 -0.9476 -0.0644
    1DMC     O4 3040   3.011   3.120   2.264 -0.1235  0.7337  0.2631
    1DMC     C5 3041   3.141   2.970   2.540  0.0536  0.1409  0.6041
    1DMC     C6 3042   2.878   3.144   2.227 -0.2119  0.2040  0.2429
    1DMC     O1 3043   2.746   1.520   3.951 -0.6086  0.2747  0.0384
    1DMC     C2 3044   2.862   1.488   3.957 -0.6747  0.1275  0.5452
    1DMC     O3 3045   2.965   1.573   3.962 -0.5248  0.0061 -0.2868
    1DMC     O4 3046   2.900   1.374   4.018 -0.0531  0.2554  0.4029
    1DMC     C5 3047   2.931   1.710   3.949 -0.7372  0.0358  0.5092
    1DMC     C6 3048   2.792   1.303   4.075 -0.1020  0.1606  0.1936
    1DMC     O1 3049   0.336   1.096   3.532  0.2608  0.0759  0.0189
    1DMC     C2 3050   0.268   1.120   3.436  0.4167  1.0057  0.1348
    1DMC     O3 3051   0.315   1.125   3.311 -0.0061  0.0128 -0.0703
    1DMC     O4 3052   0.134   1.127   3.443  0.3766  0.3602  0.1060
    1DMC     C5 3053   0.454   1.103   3.305  0.0853  0.5323  0.1361
    1DMC     C6 3054   0.078   1.112   3.572 -0.1207 -0.0565 -0.1566
    1DMC     O1 3055   0.061   1.420   3.112 -0.5624 -0.2958 -0.3323
    1DMC     C2 3056   0.121   1.486   3.032 -0.0367 -0.0516  0.2531
    1DMC     O3 3057   0.068   1.539   2.921  0.1787 -0.6617 -0.1427
    1DMC     O4 3058   0.252   1.514   3.039 -0.0672  0.0590  0.3877
    1DMC     C5 3059  -0.069   1.517   2.895  0.0954 -0.6129  0.2493
    1DMC     C6 3060   0.329   1.452   3.140  0.2683 -0.5067 -0.2092
    1DMC     O1 3061   2.197   2.114   3.019 -0.3478 -0.2730 -0.4435
    1DMC     C2 3062   2.286   2.087   2.943  0.5036  0.5469  0.2417
    1DMC     O3 3063   2.413   2.076   2.986  0.4919  0.5101  0.2668
    1DMC     O4 3064   2.283   2.107   2.811 -0.1117  0.2418  0.2066
    1DMC     C5 3065   2.406   2.093   3.126  0.2087  0.1322  0.3005
    1DMC     C6 3066   2.157   2.153   2.767  0.0303  0.1373 -0.3182
    1DMC     O1 3067   2.548   1.737   1.199 -0.0704 -0.4907  0.0681
    1DMC     C2 3068   2.664   1.760   1.217 -0.1120  0.0937 -0.3804
    1DMC     O3 3069   2.758   1.673   1.256 -0.2036  0.0437 -0.2719
    1DMC     O4 3070   2.719   1.881   1.197 -0.3028  0.2132 -0.1804
    1DMC     C5 3071   2.694   1.548   1.267 -0.5577  0.2745  0.3042
    1DMC     C6 3072   2.626   1.987   1.208 -0.3516  0.1129  0.4239
    1DMC     O1 3073   2.203   3.409   0.222 -0.0672 -0.1139  0.3023
    1DMC     C2 3074   2.085   3.424   0.238 -0.0327  0.2613  0.2053
    1DMC     O3 3075   2.024   3.422   0.358 -0.2748 -0.4452  0.0751
    1DMC     O4 3076   2.009   3.471   0.138 -0.0158  0.0571  0.0972
    1DMC     C5 3077   2.108   3.421   0.472 -0.0389 -0.2743 -0.0945
    1DMC     C6 3078   2.073   3.464   0.012  0.1599 -0.2373  0.2005
    1DMC     O1 3079   0.939   1.208   0.063  0.7402 -0.5184  0.1600
    1DMC     C2 3080   0.962   1.209  -0.055  0.2657  0.0798  0.0677
    1DMC     O3 3081   1.082   1.240  -0.108  0.1965  0.0697 -0.0945
    1DMC     O4 3082   0.866   1.191  -0.146  0.1108  0.2145  0.2023
    1DMC     C5 3083   1.176   1.295  -0.018 -0.0591  0.9693 -0.3681
    1DMC     C6 3084   0.743   1.171  -0.080  0.0413  0.6635  0.2085
    1DMC     O1 3085   2.733   2.726   2.629 -0.0729 -0.1554 -0.3111
    1DMC     C2 3086   2.836   2.684   2.584 -0.1740 -0.1254 -0.5728
    1DMC     O3 3087   2.855   2.660   2.453  0.2036 -0.2998 -0.4876
    1DMC     O4 3088   2.929   2.626   2.661 -0.6718 -0.2614 -0.0622
    1DMC     C5 3089   2.776   2.729   2.359  0.6292  0.5942 -0.1994
    1DMC     C6 3090   2.903   2.622   2.799 -0.0915  0.4292  0.0788
    1DMC     O1 3091   0.494   0.920   2.362 -0.1398 -0.3025  0.4636
    1DMC     C2 3092   0.391   0.961   2.314  0.3934  0.3889 -0.1154
    1DMC     O3 3093   0.327   1.070   2.359  0.0135  0.1600 -0.0965
    1DMC     O4 3094   0.359   0.935   2.187 -0.0824  0.2619  0.0316
    1DMC     C5 3095   0.412   1.148   2.441  0.3927  0.0293 -0.3657
    1DMC     C6 3096   0.441   0.840   2.123  0.4200  0.8737 -0.2411
    1DMC     O1 3097   3.761   2.721   1.493 -0.1486 -0.1648 -0.0178
    1DMC     C2 3098   3.698   2.683   1.398  0.0133 -0.5354  0.0184
    1DMC     O3 3099   3.692   2.750   1.282 -0.1056 -0.1595  0.2395
    1DMC     O4 3100   3.647   2.560   1.381 -0.4144 -0.2761 -0.6108
    1DMC     C5 3101   3.711   2.890   1.285  0.6938 -0.2580 -0.0218
    1DMC     C6 3102   3.700   2.475   1.481 -0.2687  0.0965 -0.3686
   3.97405   3.97305   3.97205
