Generated with LigParGen (israel.cabezadevaca@yale.edu)
    7
    1PF6    P00    1   0.300   0.012   0.040
    1PF6    F01    2   0.147  -0.001   0.013
    1PF6    F02    3   0.330  -0.041   0.183
    1PF6    F03    4   0.435   0.087   0.050
    1PF6    F04    5   0.309  -0.141   0.014
    1PF6    F05    6   0.334   0.030  -0.111
    1PF6    F06    7   0.234   0.142   0.093
  10.00000  10.00000  10.00000
